49   
Iteration 0 Energy -1380.99496331
C       -0.0588103200    9.1596428300    6.5197757400
O       -0.2622328600    8.6979614600    7.8936217900
C        0.4093064400    9.3268486400    8.8365586900
O        0.4411591700    8.9832397800    9.9811938900
O        1.2575730500   10.3247810700    8.3095115300
C        2.0824479200   10.9512459200    9.3035787200
H       -0.6579695600    8.5147453700    5.9193481100
H       -0.3647948100   10.2041527200    6.3642047500
H        0.9823884100    9.0262772000    6.1598266200
H        1.4939927200   11.0678650300   10.2596114700
H        3.0220689000   10.3855720900    9.4175561500
H        2.4785813500   11.9012543100    8.8020919400
C        0.2495914800    4.4416233400   10.4593629000
O        1.7437931400    4.5426861200   10.5442475500
C        2.1920811100    5.6104904500   11.1626023400
O        1.4497200400    6.4464928000   11.6576966400
O        3.5556580000    5.6157127700   11.0623292100
C        4.1225525300    6.9338394500   11.3947114100
H       -0.1661456700    4.3964668600   11.3883408700
H       -0.1952918600    5.3129936600    9.9538773700
H       -0.0955337200    3.5739170400    9.8853196300
H        3.5811420800    7.7064224600   10.7769288200
H        3.8717037600    7.2585083400   12.4452637800
H        5.2237793300    6.9341312800   11.3307923500
C        3.0952483000    9.1581162600   14.9137925300
O        3.6297636900   10.2831772900   14.1010712800
C        3.0553542000   10.4992798900   12.8491028900
O        2.0507155300   10.0004090400   12.4738358600
O        3.8087874300   11.3928116900   12.1217774500
C        5.0524855500   11.9032258200   12.6013688200
H        3.7989302500    9.0075349000   15.7412995500
H        2.0493498700    9.4161729000   15.2906235800
H        2.8882323100    8.2122468100   14.3050049900
H        4.8956480800   12.6687668900   13.3370560800
H        5.6942854700   11.1011399400   13.0214585400
H        5.5326414900   12.3700761000   11.7243165100
C       -2.9763752300    9.1039527500   15.6300719900
O       -1.7271286400    9.1472867600   14.8554443000
C       -1.5813957600    8.5341170900   13.6620601300
O       -0.5008484200    8.5978435200   13.0666431100
O       -2.6287990900    7.8365310300   13.2535470600
C       -2.5516106000    7.0958942100   12.0639985700
H       -2.9456631100    9.9953130400   16.2279170600
H       -3.9160095600    9.1726602200   15.0516914000
H       -3.0687614800    8.1750892300   16.1561111100
H       -1.7854534500    6.3665794000   11.9958347000
H       -3.5151497300    6.6575149200   11.9695657400
H       -2.3584343300    7.7025531400   11.1937297500
Li       0.9087571300    8.5446900500   11.8341537800
49   
Iteration 1 Energy -1381.03710718
C       -0.0802501542    9.1376353633    6.4940897552
O       -0.2305743288    8.7216258980    7.8771434693
C        0.4683551992    9.3181374814    8.8217738833
O        0.4280582904    8.9445857466    9.9690333891
O        1.2910123883   10.3082049759    8.3497328378
C        2.1057846956   10.9721688600    9.3319095647
H       -0.7418599603    8.4876449563    5.9266739040
H       -0.3606079629   10.1875698238    6.3562307283
H        0.9476953170    8.9719542274    6.1406904111
H        1.5472125846   11.1173201159   10.2664676330
H        3.0363281983   10.4041430098    9.4822927320
H        2.4493027558   11.9073141834    8.8427802210
C        0.2497403569    4.4387770574   10.4567561127
O        1.6812594486    4.6731022901   10.5447046314
C        2.0787322178    5.7808554615   11.1430706364
O        1.5154313639    6.7153895470   11.6923393914
O        3.4157306617    5.7222117403   11.0391758428
C        4.1006009882    6.9417063787   11.3990621233
H       -0.1719945247    4.3426937315   11.4436315196
H       -0.2451821811    5.2651297469    9.9289635493
H        0.0888081703    3.5212952028    9.8817335436
H        3.6828090245    7.7837329240   10.8174431856
H        3.9122491463    7.1964253922   12.4611246760
H        5.1736843945    6.7781116630   11.2717469619
C        3.0979631813    9.1838069025   14.8788043083
O        3.6608028362   10.2664382861   14.0940534235
C        3.0918860582   10.4551552543   12.8808761893
O        2.0899694160    9.9317090313   12.4843323884
O        3.7875624599   11.3334812204   12.1481719171
C        5.0296290665   11.8686531839   12.6204735684
H        3.8044497930    9.0084054163   15.6915523979
H        2.0950622699    9.4776697790   15.2547459457
H        2.9106473605    8.2862134719   14.2525805300
H        4.8592031813   12.6328182342   13.3807203930
H        5.6757520863   11.0760306465   13.0220732139
H        5.4930781484   12.3379603738   11.7438689896
C       -2.9802054048    9.0726222776   15.5737959624
O       -1.7154688436    9.1511820940   14.8692348160
C       -1.5546090937    8.5407007852   13.7046063199
O       -0.5401126578    8.5354878597   13.0288919846
O       -2.6255191693    7.8733698768   13.3316208673
C       -2.5345192087    7.1463602633   12.1193409134
H       -3.0046883877    9.9552324237   16.2092299934
H       -3.8463872654    9.1225649697   14.8949336271
H       -3.0506013434    8.1229208804   16.1037266378
H       -1.7231867094    6.4197390607   12.1229371860
H       -3.4997513783    6.6692023810   11.9830777820
H       -2.3266815240    7.8061636021   11.2698482506
Li       0.7222188064    8.3343757377   11.6609471123
49   
Iteration 2 Energy -1381.04166473
C       -0.0902064723    9.1321671567    6.4633621576
O       -0.2075785767    8.7450495924    7.8446354065
C        0.5027697132    9.3240994449    8.7886946307
O        0.4145780395    8.9340498582    9.9381010359
O        1.3007443718   10.2929016235    8.3614583188
C        2.1114571718   10.9771489320    9.3393519127
H       -0.7895383089    8.4755785896    5.9209773115
H       -0.3601962124   10.1838321650    6.3411214767
H        0.9312584047    8.9524821339    6.1211654206
H        1.5737416121   11.1369933137   10.2598895722
H        3.0304039041   10.4024618046    9.5164353017
H        2.4168685521   11.9025888859    8.8663980687
C        0.2497919362    4.4678269844   10.4761163792
O        1.6623276307    4.6254132207   10.5107756417
C        2.1418759654    5.7182379041   11.0785735904
O        1.4567901333    6.5808060011   11.5914206410
O        3.4674112824    5.7462439579   11.0294904260
C        4.0970863262    6.9642064555   11.4167485707
H       -0.1499581024    4.3972742533   11.5195656571
H       -0.1994958261    5.3156787715    9.9439839561
H        0.0864241840    3.5425374693    9.9193234180
H        3.7159978545    7.7960093790   10.8251460024
H        3.8770907081    7.1757377047   12.4665452005
H        5.1621383234    6.7937541890   11.2902579493
C        3.0854240936    9.1891307066   14.8532079845
O        3.6647172259   10.2382666908   14.0827256824
C        3.1162097121   10.4206804457   12.8956023590
O        2.1121118747    9.8705151143   12.4938847900
O        3.7712005329   11.2891120020   12.1607908776
C        5.0146509807   11.8485579390   12.6218993592
H        3.7924153731    8.9979889702   15.6580993505
H        2.1160314790    9.5069087716   15.2300846565
H        2.9152847108    8.3224246777   14.2230465582
H        4.8354661403   12.6099068561   13.4012663326
H        5.6691091435   11.0661395810   13.0077968613
H        5.4613537506   12.3217829773   11.7448514623
C       -2.9395664359    9.1003738660   15.5791998355
O       -1.7224901540    9.1207337511   14.8285643059
C       -1.6349142639    8.4954019181   13.6892198016
O       -0.5571696293    8.6310768381   13.1675448115
O       -2.6930975803    7.8120094794   13.2746550565
C       -2.6067993029    7.0853738443   12.0446614558
H       -2.8906532021    9.9879923404   16.2228940286
H       -3.7968101707    9.1808722861   14.9011140710
H       -3.0057197730    8.1537942930   16.1398911298
H       -1.7826879119    6.3451809161   12.0962833950
H       -3.5828408088    6.5930566284   11.9015027621
H       -2.4004309031    7.7696639363   11.2004743521
Li       0.9147901315    8.7252737540   12.0298852369
49   
Iteration 3 Energy -1381.05687946
C       -0.0833057800    9.1380823538    6.4708390661
O       -0.2107606624    8.7404557863    7.8490755756
C        0.4980866255    9.3145901826    8.7985374042
O        0.4229828297    8.9414870488    9.9552861642
O        1.2913498882   10.2799666623    8.3606506101
C        2.1057055705   10.9714980016    9.3289139651
H       -0.7800632614    8.4894293324    5.9192539503
H       -0.3500970705   10.1919555466    6.3550968273
H        0.9406583323    8.9595666932    6.1328722618
H        1.5695407471   11.1368360970   10.2524012828
H        3.0240166051   10.3969286452    9.5077955680
H        2.4057975038   11.8968330934    8.8484854884
C        0.2472384326    4.4704890403   10.4787443440
O        1.6626858493    4.6254349300   10.5116950333
C        2.1469360817    5.7162530025   11.0773233902
O        1.4447215331    6.5695122041   11.5853866363
O        3.4728963290    5.7489999712   11.0299656112
C        4.1010827083    6.9678754020   11.4193846502
H       -0.1512914762    4.4012506594   11.5183089484
H       -0.2021453006    5.3183420307    9.9465992804
H        0.0809454134    3.5443864195    9.9239460887
H        3.7210257822    7.8002650360   10.8255190700
H        3.8812672876    7.1785005710   12.4701912206
H        5.1672914342    6.7987179672   11.2910380726
C        3.0746270606    9.1780367048   14.8616102157
O        3.6673622196   10.2305546478   14.0963630706
C        3.1341392445   10.4279053376   12.9033873947
O        2.1308551495    9.8751371730   12.5074565222
O        3.7847524095   11.2971003035   12.1629339380
C        5.0279603209   11.8648488889   12.6113322200
H        3.7741398534    8.9782191086   15.6718112440
H        2.1032847016    9.4994585074   15.2351660247
H        2.9058397832    8.3115667552   14.2275269049
H        4.8481264069   12.6269001217   13.3875594889
H        5.6891576424   11.0867673011   12.9958928968
H        5.4642424971   12.3359263515   11.7278111779
C       -2.9742489531    9.0876844379   15.5821827214
O       -1.7346203779    9.1325218369   14.8616768629
C       -1.6081385788    8.5184116610   13.7116499911
O       -0.5638676023    8.5902056180   13.1052517192
O       -2.6713433973    7.8433952082   13.3112472303
C       -2.5628655680    7.1257238163   12.0773499763
H       -2.9561455849    9.9647883210   16.2402057218
H       -3.8149908442    9.1658184362   14.8837145195
H       -3.0435775606    8.1354294978   16.1308803383
H       -1.7342811296    6.3941804302   12.1379705163
H       -3.5300390642    6.6271441380   11.9179025036
H       -2.3495879059    7.8188783385   11.2439591057
Li       0.7854135804    8.5472401436   11.8249178078
49   
Iteration 4 Energy -1381.05913234
C       -0.0758100740    9.1428623190    6.4903811907
O       -0.2209417385    8.7245169592    7.8652807936
C        0.4907144608    9.2942874894    8.8167424711
O        0.4207453008    8.9378492483    9.9787856613
O        1.2829543114   10.2610357415    8.3635963412
C        2.1025269808   10.9638384204    9.3164883857
H       -0.7670733230    8.5130109389    5.9244781245
H       -0.3368579463   10.2012796498    6.3839191943
H        0.9523182885    8.9682416298    6.1519777999
H        1.5588608260   11.1368745800   10.2471952234
H        3.0161599081   10.3858980375    9.5044735413
H        2.3937216219   11.8963604752    8.8218663612
C        0.2415972779    4.4608099466   10.4730515647
O        1.6559386394    4.6983275117   10.5344652052
C        2.0847408512    5.8074645371   11.1064689466
O        1.4620610373    6.7179571990   11.6361723396
O        3.4071821064    5.7831016369   11.0293700817
C        4.1068499247    6.9684186108   11.4213391426
H       -0.1685051045    4.3625726296   11.4874713498
H       -0.2552990103    5.2797560108    9.9384945239
H        0.1299729258    3.5259892006    9.9170281285
H        3.7550556916    7.8291283248   10.8391734224
H        3.9298264906    7.1759516428   12.4854890550
H        5.1644406652    6.7538270545   11.2555952918
C        3.0755050660    9.1631786519   14.8738849302
O        3.6440393927   10.2038652410   14.0515249785
C        3.1028722873   10.4037027679   12.8499265114
O        2.1081774931    9.8643147768   12.4110947880
O        3.7736853144   11.2941870046   12.1326860831
C        5.0135298088   11.8521666006   12.6127731634
H        3.8036640825    8.9845267516   15.6676239952
H        2.1125689147    9.4972596196   15.2811559115
H        2.8901553028    8.2654407176   14.2732534670
H        4.8236964535   12.5877296097   13.4041868948
H        5.6714513518   11.0611207651   12.9873594370
H        5.4644497234   12.3474432521   11.7481858327
C       -2.9899281924    9.0808471788   15.5774179201
O       -1.7305895773    9.1425880655   14.8680339178
C       -1.5566854013    8.5362878565   13.7061680315
O       -0.5091601218    8.5884196294   13.0771240668
O       -2.6227275056    7.8597793641   13.3111873281
C       -2.5357996697    7.1341582011   12.0801088664
H       -2.9891039469    9.9436376685   16.2478183390
H       -3.8333418469    9.1555843760   14.8819440774
H       -3.0563726582    8.1330000920   16.1244780112
H       -1.7226326830    6.3991455258   12.1289452269
H       -3.5050478767    6.6461437024   11.9540680474
H       -2.3399641370    7.8172214061   11.2431596769
Li       0.8454778019    8.5100396671   11.7885904409
49   
Iteration 5 Energy -1381.06252401
C       -0.0821736532    9.1369326393    6.4936708629
O       -0.2199784212    8.7215143377    7.8696767891
C        0.4979324579    9.2945195759    8.8147981264
O        0.4112384734    8.9314945861    9.9739618511
O        1.2897514485   10.2604393398    8.3677855498
C        2.1073073536   10.9654550486    9.3207489135
H       -0.7782833083    8.5080473408    5.9335378673
H       -0.3442898010   10.1953302793    6.3878966259
H        0.9444013550    8.9648739706    6.1493227421
H        1.5569767200   11.1404649823   10.2481276238
H        3.0139352763   10.3823167454    9.5223934681
H        2.3931999267   11.9007087335    8.8287895782
C        0.2344131994    4.4826563393   10.4875494270
O        1.6556133099    4.6880107961   10.5271296774
C        2.1136123239    5.7923161101   11.0818841796
O        1.4264796822    6.6678796394   11.5845729919
O        3.4374952324    5.7942319552   11.0226543895
C        4.1121598580    6.9869703692   11.4343837935
H       -0.1645578398    4.4025520807   11.5079378646
H       -0.2521559681    5.3075383533    9.9525280312
H        0.0930813476    3.5437051255    9.9459536825
H        3.7597640093    7.8451322886   10.8483095146
H        3.9221578713    7.1820844185   12.4982247516
H        5.1746907062    6.7924735840   11.2727238567
C        3.0570459213    9.1477122831   14.8732694840
O        3.6517118286   10.1772756678   14.0554080428
C        3.1283873647   10.3879398581   12.8532338110
O        2.1376711984    9.8253380657   12.4314341593
O        3.7835856573   11.2844032874   12.1307860501
C        5.0195697963   11.8618482017   12.5998739343
H        3.7779841956    8.9513333141   15.6698417840
H        2.1021417724    9.5034319938   15.2808042142
H        2.8628516717    8.2519719071   14.2719421346
H        4.8230659257   12.5895438364   13.3963450611
H        5.6928980563   11.0792831488   12.9649628217
H        5.4522467374   12.3655714223   11.7311345306
C       -2.9834782208    9.0873098257   15.5777236779
O       -1.7304180629    9.1367729043   14.8584399465
C       -1.5677863423    8.5259724815   13.7005819937
O       -0.5206061201    8.5858516472   13.0798585665
O       -2.6323001950    7.8466888654   13.2999414291
C       -2.5313021805    7.1279843281   12.0631084665
H       -2.9642458505    9.9452131182   16.2540181225
H       -3.8317987905    9.1723559100   14.8905869859
H       -3.0523856767    8.1432770578   16.1307581101
H       -1.7164211938    6.3962878913   12.1190716342
H       -3.4968692023    6.6345168678   11.9315514134
H       -2.3349272694    7.8194015865   11.2343665438
Li       0.8416272082    8.5262970020   11.7941791743
49   
Iteration 6 Energy -1381.06369078
C       -0.0889299764    9.1389685284    6.4947489405
O       -0.2235886459    8.7144423525    7.8671245264
C        0.4862748443    9.2917687763    8.8171542298
O        0.4068352515    8.9546743179    9.9845606998
O        1.2763613504   10.2501228947    8.3649178118
C        2.0978252523   10.9564186692    9.3139954172
H       -0.7768700616    8.5049491732    5.9305500419
H       -0.3676399282   10.1939376333    6.3972497556
H        0.9412181893    8.9886239885    6.1523160371
H        1.5431353985   11.1433349634   10.2359266701
H        2.9910215566   10.3621000150    9.5372228129
H        2.3824426835   11.8892100446    8.8219694397
C        0.2358958543    4.5152615308   10.5081238848
O        1.6584223208    4.6948041824   10.5385434942
C        2.1263702366    5.8007676398   11.0785855965
O        1.4356294476    6.6788863837   11.5687320749
O        3.4463314531    5.8158146002   11.0083691496
C        4.1105054070    7.0040502787   11.4477294461
H       -0.1596507984    4.4614623527   11.5307336093
H       -0.2350755478    5.3406486497    9.9602803604
H        0.0771848875    3.5674205988    9.9880894943
H        3.7575742861    7.8695599275   10.8740975493
H        3.9248839251    7.1717921214   12.5155219308
H        5.1732536194    6.8261970626   11.2698022008
C        3.0557782283    9.1476919529   14.8661509776
O        3.6899349324   10.1289815566   14.0240290799
C        3.1604938600   10.3335431110   12.8298214625
O        2.1882107971    9.7632282263   12.3755345979
O        3.7961547275   11.2483622602   12.1227240166
C        5.0132106512   11.8484136562   12.6124258780
H        3.7825343332    8.9222383302   15.6496694983
H        2.1359470458    9.5657857339   15.2901526547
H        2.8093383975    8.2539998034   14.2838909416
H        4.7892823113   12.5384795005   13.4343341235
H        5.7086771099   11.0733371424   12.9502872287
H        5.4267463710   12.3924073196   11.7594489364
C       -2.9780628806    9.0929249180   15.5724084015
O       -1.7309441020    9.1328569806   14.8484322876
C       -1.5859530453    8.5129953004   13.6967743218
O       -0.5398312702    8.5759233974   13.0822251231
O       -2.6469034564    7.8275301535   13.2946641749
C       -2.5220844958    7.1230572893   12.0483596793
H       -2.9346633959    9.9358863283   16.2666107482
H       -3.8265193503    9.2016219348   14.8898222070
H       -3.0526649640    8.1456222358   16.1196000539
H       -1.6977691972    6.4031052929   12.1104504229
H       -3.4775913544    6.6133508581   11.9055943514
H       -2.3302107125    7.8298494622   11.2322734534
Li       0.8198492352    8.5116230361   11.7898197718
49   
Iteration 7 Energy -1381.06405977
C       -0.1200527912    9.1292993234    6.4772604158
O       -0.2311613881    8.7082546924    7.8517917485
C        0.4731435897    9.3073483075    8.7932880983
O        0.3491802325    8.9544823302    9.9510103330
O        1.2753618950   10.2654310294    8.3592591684
C        2.0919129056   10.9586852911    9.3229329578
H       -0.7957408049    8.4739298320    5.9239830979
H       -0.4321734602   10.1749887406    6.3798630569
H        0.9114192624    9.0126036174    6.1269993454
H        1.5207433511   11.1586065504   10.2324375122
H        2.9609032525   10.3439061651    9.5789794044
H        2.3937367431   11.8894187561    8.8401252354
C        0.2393895886    4.5510809259   10.5354722646
O        1.6632129422    4.7158399333   10.5581330026
C        2.1297412192    5.8302069376   11.0799691761
O        1.4598987035    6.7171045461   11.5833706293
O        3.4448327859    5.8503224040   10.9830214132
C        4.1140052245    7.0213855901   11.4629439290
H       -0.1540131045    4.5347337752   11.5574038034
H       -0.2204387158    5.3664661084    9.9638400788
H        0.0685453112    3.5883826211   10.0483127404
H        3.7664196223    7.9059497791   10.9162346619
H        3.9377612939    7.1490492599   12.5365804136
H        5.1749621273    6.8534690612   11.2641711369
C        3.0293517740    9.1256732849   14.8650922187
O        3.7327537338   10.0457048019   14.0096377275
C        3.2178497021   10.2617329943   12.8143682476
O        2.2641072362    9.6527471712   12.3722335330
O        3.8273304341   11.1950409309   12.1082640313
C        5.0144905697   11.8458964789   12.6087504803
H        3.7425936566    8.8476920705   15.6446191268
H        2.1554470414    9.6253693384   15.2954858365
H        2.7140371582    8.2464118611   14.2952795462
H        4.7574739651   12.4914320877   13.4557155360
H        5.7546052114   11.0992172513   12.9143599026
H        5.3875273736   12.4381439919   11.7697860207
C       -2.9804132652    9.0871323235   15.5499522970
O       -1.7231183653    9.1421499446   14.8475897706
C       -1.5625337672    8.5189301912   13.7011517269
O       -0.5182272513    8.5805468534   13.0841973634
O       -2.6228886870    7.8292673681   13.3024670372
C       -2.4996965027    7.1316150707   12.0479202799
H       -2.9367380411    9.9005727580   16.2785750752
H       -3.8157151612    9.2258615216   14.8571724978
H       -3.0661141725    8.1258063826   16.0704801202
H       -1.6735611000    6.4154169751   12.1044086634
H       -3.4519499471    6.6143128962   11.9132733851
H       -2.3211981173    7.8459930395   11.2368976320
Li       0.8384143605    8.5057257415   11.7804411418
49   
Iteration 8 Energy -1381.06403967
C       -0.1285564407    9.1332185005    6.4954017502
O       -0.2457354915    8.6927472849    7.8648430481
C        0.4540335281    9.2814093194    8.8169215615
O        0.3458203019    8.9423101429    9.9811685261
O        1.2496284298   10.2415723261    8.3699275876
C        2.0689812818   10.9495203059    9.3201006854
H       -0.7985047105    8.4845592996    5.9268115321
H       -0.4420231902   10.1797609302    6.4082460521
H        0.9051230186    9.0240724362    6.1488909348
H        1.4959028255   11.1815578920   10.2214039696
H        2.9289874141   10.3312947791    9.5959912415
H        2.3847002733   11.8633480281    8.8129818500
C        0.2409552076    4.5614238949   10.5495622175
O        1.6677380033    4.7202093377   10.5589368929
C        2.1391235610    5.8369352788   11.0720035248
O        1.4657193233    6.7088637787   11.5975087471
O        3.4543948804    5.8617602104   10.9626370838
C        4.1295057230    7.0215783849   11.4648677959
H       -0.1451441737    4.5667656593   11.5749622508
H       -0.2190283700    5.3693127718    9.9673143831
H        0.0600182658    3.5918522717   10.0801742070
H        3.7895888066    7.9180135794   10.9333993167
H        3.9461859671    7.1315451028   12.5390768105
H        5.1908224938    6.8500103613   11.2708276693
C        3.0256172071    9.1185726370   14.8672504503
O        3.7263247791   10.0259568331   13.9926198085
C        3.2106373897   10.2409262434   12.7931205668
O        2.2529648126    9.6472234769   12.3379037348
O        3.8421539399   11.1648866268   12.0903126968
C        5.0110678820   11.8277946763   12.6207501089
H        3.7422068020    8.8489244442   15.6470754485
H        2.1577178106    9.6298460200   15.2966640061
H        2.7012058000    8.2322841210   14.3139567002
H        4.7301337420   12.4574751532   13.4721715549
H        5.7589069950   11.0898244523   12.9293014106
H        5.3908495032   12.4383741960   11.7981510424
C       -2.9749576062    9.0854191101   15.5275456245
O       -1.7037792967    9.1424663608   14.8464359775
C       -1.5263930419    8.5319696669   13.6939010183
O       -0.4938024033    8.6192414329   13.0559819690
O       -2.5901433705    7.8443696965   13.2987603482
C       -2.4884922705    7.1417347289   12.0439572465
H       -2.9238353851    9.8593606464   16.2978562834
H       -3.7931482865    9.2852307901   14.8289811674
H       -3.1018104098    8.1015200179   15.9954774006
H       -1.6774302117    6.4082148731   12.0975723502
H       -3.4523967739    6.6439098152   11.9150476001
H       -2.2994778115    7.8503413382   11.2303736677
Li       0.8339887378    8.5940194185   11.7126865781
49   
Iteration 9 Energy -1381.06506636
C       -0.1314132227    9.1377409410    6.4842368479
O       -0.2517123627    8.6961582941    7.8522823031
C        0.4445819038    9.2830061475    8.8061889156
O        0.3401778415    8.9486999954    9.9717944770
O        1.2405697201   10.2430995624    8.3601759794
C        2.0586519870   10.9473218410    9.3147599440
H       -0.7990762180    8.4878065864    5.9141685071
H       -0.4458677665   10.1840128433    6.3977743119
H        0.9031568726    9.0282923135    6.1403221206
H        1.4836900884   11.1802329149   10.2155935304
H        2.9188347369   10.3281904367    9.5890636858
H        2.3816602381   11.8600679485    8.8084041598
C        0.2372946452    4.5631182299   10.5508008253
O        1.6653153552    4.7254754986   10.5583309475
C        2.1413422181    5.8415588540   11.0716365311
O        1.4563266557    6.7080768751   11.5915994338
O        3.4596249459    5.8654672200   10.9613368260
C        4.1393288150    7.0228811351   11.4626047403
H       -0.1469372586    4.5658851535   11.5779312546
H       -0.2277324761    5.3697973194    9.9708825229
H        0.0570714147    3.5942337640   10.0793800968
H        3.7998071117    7.9212535409   10.9341812907
H        3.9548095994    7.1335311328   12.5371658413
H        5.2002136730    6.8456173039   11.2712734893
C        3.0304163237    9.1232485659   14.8696711258
O        3.7230432890   10.0371264705   13.9917369254
C        3.2072063040   10.2517309809   12.7893327894
O        2.2478058446    9.6748829518   12.3187058788
O        3.8505780703   11.1706527580   12.0905814439
C        5.0177991700   11.8270527795   12.6303425885
H        3.7489953072    8.8633202558   15.6509951069
H        2.1554852544    9.6253831037   15.2974138930
H        2.7121751384    8.2325796806   14.3185697047
H        4.7330204544   12.4577764072   13.4797390945
H        5.7600216395   11.0854444313   12.9438595797
H        5.4063688938   12.4370430232   11.8113494365
C       -2.9746891111    9.0908124077   15.5415273937
O       -1.7134462074    9.1488509662   14.8410937273
C       -1.5448581103    8.5323043047   13.6887488362
O       -0.4997343086    8.6069250943   13.0708603966
O       -2.6014297458    7.8359326068   13.2889929745
C       -2.4838539174    7.1303882234   12.0383095873
H       -2.9163609811    9.8690538357   16.3067512736
H       -3.8060887392    9.2829076741   14.8567521451
H       -3.0895539204    8.1066536483   16.0119279524
H       -1.6615958651    6.4092035163   12.0963472367
H       -3.4400075005    6.6191817393   11.9039077461
H       -2.2991345296    7.8383056943   11.2224550153
Li       0.8557466397    8.5267386361   11.7625415549
49   
Iteration 10 Energy -1381.06522521
C       -0.1418913882    9.1345881643    6.4793267762
O       -0.2594874760    8.6975853268    7.8493239500
C        0.4398497149    9.2853202291    8.7999782746
O        0.3382067136    8.9389526185    9.9624563210
O        1.2339045584   10.2482713687    8.3576847815
C        2.0504440520   10.9471829908    9.3166189372
H       -0.8126818410    8.4842281546    5.9133605469
H       -0.4533247597   10.1813989294    6.3898123082
H        0.8911826345    9.0198885333    6.1325347819
H        1.4706898552   11.1819054825   10.2137306555
H        2.9075966306   10.3248475146    9.5933738412
H        2.3821212853   11.8575663167    8.8119132270
C        0.2436115954    4.5629193453   10.5489979332
O        1.6710929540    4.7217742912   10.5617011224
C        2.1464442965    5.8310172381   11.0901713252
O        1.4826753735    6.7134248907   11.6100589577
O        3.4615353708    5.8520926467   10.9649903694
C        4.1438581695    7.0131018227   11.4541210037
H       -0.1428921837    4.5560424676   11.5756078890
H       -0.2181949492    5.3767517082    9.9764431065
H        0.0636082333    3.5997270166   10.0663227796
H        3.8006083095    7.9071299820   10.9203703544
H        3.9639252128    7.1341880298   12.5288791249
H        5.2035194184    6.8328633577   11.2604711598
C        3.0209362281    9.1230817537   14.8656616407
O        3.7235552918   10.0481059984   14.0098444409
C        3.2224026392   10.2621046423   12.8040258497
O        2.2619070535    9.6779826311   12.3469636193
O        3.8697147401   11.1715240065   12.0979179107
C        5.0340467525   11.8337487507   12.6340373809
H        3.7270155755    8.8638139134   15.6581667928
H        2.1323159024    9.6131514089   15.2791016675
H        2.7209241216    8.2352109332   14.2991999487
H        4.7480509886   12.4680489569   13.4803154339
H        5.7781360700   11.0950871197   12.9500742587
H        5.4194321076   12.4406383792   11.8111900115
C       -2.9743206891    9.0963955729   15.5494746068
O       -1.7200444701    9.1491481480   14.8385015621
C       -1.5676314510    8.5299486191   13.6866125215
O       -0.5202008687    8.6130727127   13.0772251875
O       -2.6191470165    7.8302095733   13.2815610061
C       -2.4805445343    7.1310563312   12.0308239417
H       -2.8988719122    9.8677364078   16.3198125890
H       -3.8088711275    9.3058298186   14.8731219325
H       -3.0978557462    8.1083463590   16.0088758461
H       -1.6533066957    6.4158951587   12.0971067575
H       -3.4311795478    6.6145148761   11.8807684538
H       -2.2876759073    7.8429327010   11.2199825847
Li       0.8280882048    8.5273807648   11.7657396682
49   
Iteration 11 Energy -1381.06563938
C       -0.1547995875    9.1319786762    6.4780779908
O       -0.2711380357    8.6948213095    7.8486840398
C        0.4305331161    9.2808885264    8.7989958830
O        0.3300140995    8.9260924102    9.9595293913
O        1.2216363979   10.2474465151    8.3592524661
C        2.0379560505   10.9452843480    9.3188025610
H       -0.8275989412    8.4830823754    5.9125471076