43   
Iteration 0 Energy -3396.51214175
C       -2.8711272100  -12.3200751200    3.8698898700
O       -4.1379652800  -12.8160048400    4.2305294400
C       -4.1304808500  -13.7100325500    5.2571140700
O       -3.2021819000  -14.0129424000    5.9754043900
O       -5.3944273800  -14.2893896900    5.4217239700
C       -5.5478697600  -15.2836066100    6.4311367400
H       -2.6266585200  -11.4848128200    4.5279518500
H       -2.1067839500  -13.0374937900    4.1260944700
H       -2.8034926300  -12.0782614600    2.7493397100
H       -4.6224776100  -15.4422980200    6.9955059400
H       -6.4205733200  -14.9941969700    7.0622764900
H       -5.7326613300  -16.2408972600    5.9180981000
C        0.5194202800  -10.9552412900    6.5449959200
O        1.2522655800  -11.8725424600    7.2501579600
C        0.5557266600  -12.8523131200    7.9198318800
O       -0.6633514000  -13.0796156700    7.8371483200
O        1.4434982700  -13.4564810600    8.6974388500
C        0.8982082700  -14.6627226700    9.4030891800
H       -0.0084289200  -11.4809904900    5.7414947900
H       -0.2804301900  -10.4453307000    7.1272503300
H        1.2514454300  -10.2415495700    6.1560303100
H        1.7802044300  -15.3790923000    9.4737144800
H        0.5245624900  -14.2035246700   10.3354813000
H        0.1154819900  -15.0997725400    8.6942459500
N        1.2084449400  -16.2546962400    4.2868343700
S        2.6417735700  -16.6883610400    3.7361599300
O        2.4969161600  -17.2010244000    2.3993545900
O        3.7554134000  -15.8374828000    4.1281868300
F        2.8110660200  -18.0631450300    4.8411957100
S        0.8462623200  -15.2606309500    5.4933067700
O        1.9765590300  -14.7809013000    6.2029491800
O       -0.3089729700  -15.6125825500    6.2718616800
F        0.2837241800  -13.8380998200    4.5055004500
N       -4.4910510700  -13.6035407700    9.8029330800
S       -3.2772658900  -14.5949987000    9.9896367700
O       -2.9087947500  -15.0972675000    8.6474155100
O       -2.2244990900  -14.0056766100   10.7949021900
F       -3.9565566700  -15.9298528300   10.9928601900
S       -4.8699287100  -12.6680644600   11.0190995800
O       -3.8117965300  -11.8884805300   11.5493682500
O       -5.9794410300  -13.1831391900   11.8179458300
F       -5.7394355400  -11.3759301800   10.1251634200
Li      -1.8058837500  -14.5968469300    7.0869327900
43   
Iteration 1 Energy -3396.57120088
C       -2.8411147815  -12.3496277588    3.9326815375
O       -4.1208640568  -12.8603285742    4.2960652855
C       -4.1325357258  -13.7414459429    5.2890848904
O       -3.1356892773  -13.9427745206    5.9429133100
O       -5.3672977648  -14.2793031227    5.4299212904
C       -5.5841540805  -15.2813914516    6.4275912183
H       -2.5896265482  -11.4891262929    4.5664923869
H       -2.0508189657  -13.0799388759    4.1293952031
H       -2.8567190962  -12.1011909807    2.8540788677
H       -4.6887110894  -15.4649823147    7.0263865813
H       -6.4394130923  -14.9615499230    7.0398452990
H       -5.8158878130  -16.2208757778    5.9020262434
C        0.4834491535  -10.9572488392    6.5188604424
O        1.2582650916  -11.8681910876    7.2552270775
C        0.6099783618  -12.8415736626    7.9252776992
O       -0.5864829067  -12.9970608852    7.7344270762
O        1.4303189573  -13.4846274075    8.7303966166
C        0.8886416251  -14.6786949520    9.4292322366
H       -0.0583241513  -11.4678224650    5.7085763542
H       -0.2842831112  -10.4610765054    7.1390352335
H        1.1840908468  -10.2226141534    6.1095524094
H        1.7493418570  -15.3653652743    9.5070747480
H        0.4957581975  -14.3099053338   10.3811401489
H        0.1249381957  -15.1449614626    8.7855697365
N        1.1561924227  -16.2578754680    4.2822632116
S        2.6061752093  -16.6874979133    3.7573511131
O        2.4775795627  -17.2402143582    2.4273018622
O        3.7338887285  -15.8383041341    4.1112938972
F        2.8483181782  -18.0571165814    4.7887307480
S        0.8526983734  -15.2649032917    5.4724146110
O        1.9571655468  -14.7430277522    6.2348119642
O       -0.3693082783  -15.6261582587    6.1782953258
F        0.2839416739  -13.8694167136    4.5514000177
N       -4.4442299590  -13.5725884059    9.8469483041
S       -3.2152986032  -14.5746104424    9.9670329927
O       -2.9564922404  -15.1766831722    8.6443840507
O       -2.0623857311  -14.2089353086   10.7759976270
F       -3.9036970017  -15.8856865947   10.8788936717
S       -4.9025515549  -12.6024752488   11.0455484751
O       -3.9036306242  -11.7525299116   11.6358555380
O       -5.9961161774  -13.1669979967   11.8285991277
F       -5.7600075059  -11.4706499131   10.0259282469
Li      -1.6066223550  -14.2970430513    6.9874127826
43   
Iteration 2 Energy -3396.55157839
C       -2.8761360231  -12.2968953354    3.8505736615
O       -4.0897129135  -12.9053113722    4.3219769846
C       -4.0426234303  -13.7590639002    5.3245718702
O       -3.2089045065  -14.1329735752    6.1151124941
O       -5.2568706438  -14.2283797143    5.3860046285
C       -5.4942694613  -15.2205204552    6.3976448697
H       -2.6655098557  -11.3786441501    4.4212660833
H       -2.0039576423  -12.9562965815    3.9768680627
H       -3.0346668883  -12.0892201483    2.7999513914
H       -4.6080537365  -15.3670784579    7.0224894072
H       -6.3453381099  -14.8912190860    6.9916511661
H       -5.7210620788  -16.1683878975    5.8898155037
C        0.4912286421  -10.9561282558    6.5187927875
O        1.2817492934  -11.8587077738    7.2932026719
C        0.6277477853  -12.8054673450    7.9475157245
O       -0.5553527880  -13.0077607637    7.7861185783
O        1.4245273847  -13.4571715939    8.7450576773
C        0.8912115169  -14.6468269032    9.4204822441
H       -0.0391452065  -11.4763870743    5.7045522862
H       -0.2670528023  -10.4661395771    7.1441373216
H        1.1812178704  -10.2170706926    6.1016272791
H        1.7396185738  -15.3153031805    9.4958387837
H        0.4867742799  -14.3451485264   10.3835559820
H        0.1382584787  -15.1176907235    8.8058071035
N        1.1168849300  -16.2634879125    4.2745238268
S        2.5837589618  -16.6908999117    3.7729448312
O        2.4663460224  -17.2695171768    2.4457355765
O        3.7020186527  -15.8214092187    4.1070493774
F        2.8604482652  -18.0361043748    4.7619343307
S        0.8566802584  -15.2648873974    5.4486577862
O        1.9617787161  -14.7350385011    6.2373630647
O       -0.4037856537  -15.6176514983    6.1282870895
F        0.3038147881  -13.8869431923    4.5831141860
N       -4.4258028218  -13.5611948917    9.8425046275
S       -3.1838285551  -14.5476420735    9.9589420608
O       -2.9331920695  -15.1684417513    8.6473075708
O       -2.0293153453  -14.2403533277   10.7961782512
F       -3.8667815957  -15.8434190814   10.7973228957
S       -4.9369006364  -12.5870270740   11.0416195863
O       -3.8773749433  -11.7657956324   11.6122341860
O       -6.0033505713  -13.1579480066   11.8532810881
F       -5.7562664663  -11.5329762461    9.9884158505
Li      -2.0437055013  -14.8228330071    7.4182624191
43   
Iteration 3 Energy -3396.58999760
C       -2.8554229343  -12.3261442913    3.8939288167
O       -4.1061340887  -12.9013341997    4.3031765973
C       -4.0899185306  -13.7630771683    5.2971816887
O       -3.1691872202  -14.0565331998    6.0223397971
O       -5.3011858290  -14.2581201792    5.3892534208
C       -5.5442330335  -15.2473203363    6.4048158641
H       -2.6460267163  -11.4217162219    4.4863660885
H       -2.0126937795  -13.0158628258    4.0546637908
H       -2.9569458403  -12.1017580020    2.8400064363
H       -4.6651833254  -15.3913684171    7.0383989692
H       -6.4004872611  -14.9130705450    6.9905839241
H       -5.7706179139  -16.1972137018    5.9005426967
C        0.4945140025  -10.9554316928    6.5193923423
O        1.2774550634  -11.8603260867    7.2976567875
C        0.6160079976  -12.8055060134    7.9482246422
O       -0.5689018673  -13.0261471805    7.8012105908
O        1.4196015337  -13.4525872499    8.7432521684
C        0.8940848408  -14.6419317618    9.4182015575
H       -0.0320395571  -11.4751395986    5.7030297669
H       -0.2643219220  -10.4626903606    7.1415762408
H        1.1902513833  -10.2197001437    6.1060876860
H        1.7457576542  -15.3077760285    9.4919439141
H        0.4905254464  -14.3432751125   10.3830072475
H        0.1398015220  -15.1154139982    8.8050614073
N        1.1146150415  -16.2645879396    4.2739809489
S        2.5833848330  -16.6920302969    3.7730889259
O        2.4655923623  -17.2714565315    2.4457891290
O        3.6986692794  -15.8184690045    4.1066681011
F        2.8588638912  -18.0334767208    4.7618902542
S        0.8527550281  -15.2640466091    5.4490196141
O        1.9595383702  -14.7378596803    6.2370071672
O       -0.4075513637  -15.6165269153    6.1302284387
F        0.3052408356  -13.8876868313    4.5843534281
N       -4.4309742765  -13.5663874461    9.8432456097
S       -3.1945120105  -14.5504014617    9.9739808198
O       -2.9480645032  -15.1815282833    8.6703759734
O       -2.0422687712  -14.2302974203   10.8085953300
F       -3.8750108127  -15.8408804373   10.8130821792
S       -4.9348517328  -12.5884205308   11.0401334383
O       -3.8739063120  -11.7715758609   11.6143280783
O       -6.0012686576  -13.1600567950   11.8501639767
F       -5.7494255601  -11.5337983908    9.9920852269
Li      -1.7964477169  -14.6004217038    7.1799997812
43   
Iteration 4 Energy -3396.59442332
C       -2.7979882905  -12.3441141172    3.9512970566
O       -4.0807214295  -12.8708535892    4.3169257689
C       -4.1350779866  -13.7490717244    5.3098483784
O       -3.1600868101  -13.9660112227    5.9999566265
O       -5.3552391794  -14.2683953201    5.4339743364
C       -5.5895918661  -15.2665257154    6.4441537864
H       -2.5667110271  -11.4642331423    4.5669222649
H       -2.0049803627  -13.0865668676    4.1055256884
H       -2.8742021224  -12.0787220638    2.8917230853
H       -4.6999716888  -15.4218675677    7.0593948712
H       -6.4307988783  -14.9278523601    7.0560872928
H       -5.8426295934  -16.2016266899    5.9263363798
C        0.4749267573  -10.9612290851    6.5135007049
O        1.2232071287  -11.8827513373    7.2990895976
C        0.5540031271  -12.8478461362    7.9266448055
O       -0.6326791169  -13.1042981821    7.7597263103
O        1.3802958609  -13.4701107518    8.7353947633
C        0.9035912693  -14.6508335344    9.4280075886
H       -0.0365877686  -11.4724517705    5.6872383345
H       -0.2770217254  -10.4524179927    7.1319361246
H        1.2038417385  -10.2442381634    6.1237736308
H        1.7786747964  -15.3019825538    9.5065282995
H        0.5089762326  -14.3437602611   10.3984838308
H        0.1355802300  -15.1503961416    8.8341599619
N        1.0974361944  -16.2689805357    4.2732660151
S        2.5726029179  -16.6968775789    3.7721445838
O        2.4435255333  -17.2861195256    2.4501340350
O        3.6677039928  -15.7919087393    4.0879822984
F        2.8445261599  -18.0085643033    4.7787398473
S        0.8145277372  -15.2588372428    5.4502384093
O        1.9238544820  -14.7690771091    6.2513791328
O       -0.4429613166  -15.6199349150    6.1315048621
F        0.3135817598  -13.8828526138    4.5861417425
N       -4.3991637400  -13.5808715186    9.7856929067
S       -3.1668919805  -14.5557431497    9.9373553775
O       -2.8535665010  -15.1257016453    8.6110673276
O       -2.0557295110  -14.1664675889   10.7951082510
F       -3.8388320269  -15.8554103357   10.7589931957
S       -4.8822170932  -12.6055711488   10.9947311469
O       -3.8901887020  -11.7429324907   11.6179729100
O       -5.9361661345  -13.1943785594   11.8081632186
F       -5.7281118468  -11.5671720361    9.9925966275
Li      -1.7239918332  -14.3600237881    7.1658374055
43   
Iteration 5 Energy -3396.59790664
C       -2.7863965693  -12.3392675682    3.9444291206
O       -4.0721179975  -12.9039525087    4.2418478965
C       -4.1389786791  -13.7790224047    5.2421044966
O       -3.1608378777  -14.0443625666    5.9143327454
O       -5.3487826688  -14.3009713553    5.3819541565
C       -5.5666838878  -15.2449310893    6.4514772306
H       -2.6435045457  -11.4352031291    4.5501190294
H       -1.9869148320  -13.0583223578    4.1556556040
H       -2.8187138348  -12.0838884019    2.8786181618
H       -4.6875346327  -15.3042692346    7.0991691391
H       -6.4279680548  -14.8898254794    7.0260972718
H       -5.7831340392  -16.2185153437    5.9961998480
C        0.4664664261  -10.9701091527    6.5250377412
O        1.2655464156  -11.8186322973    7.3517004507
C        0.6233867845  -12.7820108500    7.9933955941
O       -0.5660894346  -12.9838333903    7.7810255098
O        1.4201170002  -13.4444755460    8.8042425744
C        0.9145900847  -14.6277961753    9.4324168847
H       -0.0097831456  -11.5568179516    5.7306133382
H       -0.2978850648  -10.4706839271    7.1331320184
H        1.1616526589  -10.2425128051    6.0978668484
H        1.7740464663  -15.3009826042    9.5223925114
H        0.4919443297  -14.3700978640   10.4074015142
H        0.1435399112  -15.0948931394    8.8104241513
N        1.0480442600  -16.2769317417    4.2724687687
S        2.5366951051  -16.6980723647    3.7790808969
O        2.4054508380  -17.3185452716    2.4690415069
O        3.6043239398  -15.7488498068    4.0574690581
F        2.8333125401  -17.9615809934    4.7950009387
S        0.7613959287  -15.2559938215    5.4459957049
O        1.8733113028  -14.8126482570    6.2763074720
O       -0.5154954966  -15.6003541316    6.1111818274
F        0.3364538949  -13.8816884467    4.6004109768
N       -4.3835667573  -13.5999441532    9.7553391218
S       -3.1555985227  -14.5595819195    9.9704283205
O       -2.7876640150  -15.1287164876    8.6543563562
O       -2.0871591774  -14.1145824305   10.8550786199
F       -3.8197603997  -15.8498689269   10.7544378252
S       -4.8857797099  -12.6149822487   10.9570266529
O       -3.8412984961  -11.7966173549   11.5643907019
O       -5.9139075212  -13.2076443295   11.8003577038
F       -5.7094634030  -11.5961181743    9.9803384306
Li      -1.7586784562  -14.5756301538    7.0579951794
43   
Iteration 6 Energy -3396.59793228
C       -2.8312684989  -12.2936827868    3.8815074072
O       -4.0811100990  -12.9136834610    4.2244066724
C       -4.0404903225  -13.7618879732    5.2402721268
O       -3.1074992980  -14.0484808882    5.9635781417
O       -5.2393916495  -14.2632181459    5.3727239993
C       -5.4908178739  -15.1863284785    6.4561028381
H       -2.6983469480  -11.3963037333    4.4999653980
H       -2.0000207753  -12.9895225993    4.0400360623
H       -2.9212377226  -12.0175057723    2.8313642003
H       -4.6294951242  -15.2477022759    7.1267015536
H       -6.3553032583  -14.8009925703    7.0038523483
H       -5.7243599511  -16.1605228089    6.0123503182
C        0.4724080283  -10.9682078473    6.5328721005
O        1.2453076181  -11.8169811892    7.3913537995
C        0.5822270654  -12.8035651846    7.9653112923
O       -0.5797279732  -13.1403899347    7.8090557963
O        1.3936855706  -13.4151088177    8.7883655233
C        0.9176701170  -14.5979423688    9.4370119472
H        0.0183508877  -11.5608297849    5.7298282603
H       -0.3027967368  -10.4589478992    7.1167531049
H        1.1854288643  -10.2494720662    6.1208892531
H        1.7806164299  -15.2596898563    9.5252251867
H        0.5080785498  -14.3432914976   10.4182776016
H        0.1385053169  -15.0815449022    8.8456885966
N        1.0158177411  -16.2984248415    4.2485956498
S        2.5123214968  -16.6946633288    3.7596625065
O        2.3902275444  -17.3730822341    2.4767121068
O        3.5556187556  -15.7057573987    3.9882337089
F        2.8553040555  -17.9024721838    4.8138916097
S        0.7388822778  -15.2893895184    5.4266902733
O        1.8286648794  -14.8926301110    6.3141629548
O       -0.5668649064  -15.6322177790    6.0368011092
F        0.3641849786  -13.8915876790    4.6190630950
N       -4.3676995787  -13.6116969413    9.7659078576
S       -3.1486148805  -14.5772227375   10.0245686648
O       -2.8014944507  -15.2156962556    8.7409741417
O       -2.0736436318  -14.1550121292   10.9136087276
F       -3.8231176872  -15.8509543184   10.7938328382
S       -4.9054168087  -12.6111524150   10.9430884870
O       -3.8190112767  -11.8228410006   11.5225780267
O       -5.9289684084  -13.2109640726   11.7894085340
F       -5.7029081627  -11.6148950008    9.9360107549
Li      -1.7765708746  -14.5887541953    7.1667910755
43   
Iteration 7 Energy -3396.60367324
C       -2.8168173475  -12.2969992208    3.8966034507
O       -4.0731768153  -12.9052585105    4.2382289469
C       -4.0566575965  -13.7561407171    5.2554043080
O       -3.1069482325  -14.0210432821    5.9640355568
O       -5.2654936145  -14.2632745323    5.3910436564
C       -5.5129991888  -15.1884659352    6.4708844185
H       -2.6663766689  -11.4061502959    4.5198683634
H       -1.9919910993  -13.0004436511    4.0473267938
H       -2.9019750127  -12.0121259647    2.8448097019
H       -4.6479388534  -15.2574512913    7.1353842505
H       -6.3765190830  -14.8063760842    7.0245062205
H       -5.7462266885  -16.1607790468    6.0215308545
C        0.4631320755  -10.9693383224    6.5284428617
O        1.2433964131  -11.8043085800    7.3896167657
C        0.5987256316  -12.8049689531    7.9727613126
O       -0.5703082879  -13.0842447087    7.7574771284
O        1.3991850620  -13.4285122052    8.8073013467
C        0.9180406762  -14.6172897705    9.4548087656
H        0.0096071968  -11.5698155478    5.7310988954
H       -0.3173244600  -10.4599222486    7.1076294740
H        1.1684483225  -10.2469055609    6.1084520316
H        1.7819087355  -15.2811491970    9.5458232363
H        0.5062266333  -14.3545883864   10.4343132016
H        0.1407565952  -15.1001337751    8.8583148530
N        1.0118002190  -16.3038674670    4.2457213177
S        2.5064599869  -16.6925949124    3.7527485529
O        2.3876703538  -17.3768094627    2.4744541501
O        3.5461116594  -15.6980930966    3.9749595761
F        2.8616356533  -17.8968223345    4.8229641063
S        0.7325003412  -15.2987059405    5.4287462068
O        1.8164959995  -14.9094297878    6.3207714381
O       -0.5735307626  -15.6352459565    6.0297961353
F        0.3641656803  -13.8876675425    4.6174457812
N       -4.3472352545  -13.6154466496    9.7634883136
S       -3.1312015206  -14.5963545547    9.9981357847
O       -2.8009828212  -15.2250361538    8.7036577183
O       -2.0415278727  -14.1893872106   10.8748224137
F       -3.8122498649  -15.8719951527   10.7894950163
S       -4.8676032203  -12.6080639964   10.9405246692
O       -3.8965930833  -11.7292119627   11.5805606089
O       -5.9097540828  -13.2183702978   11.7573399114
F       -5.6909990453  -11.6301951678    9.9147443144
Li      -1.7593859623  -14.5196274114    7.1716004132
43   
Iteration 8 Energy -3396.60254430
C       -2.7822694411  -12.3120650074    3.9317978406
O       -4.0584089284  -12.8929352016    4.2522401516
C       -4.1026796921  -13.7458564301    5.2696398146
O       -3.1182568343  -13.9733221078    5.9414970734
O       -5.3163509725  -14.2654284020    5.4152380195
C       -5.5385577734  -15.1926630203    6.4961110233
H       -2.6144883967  -11.4284528541    4.5609824476
H       -1.9731737246  -13.0328869582    4.0859585822
H       -2.8461029438  -12.0185018205    2.8780422182
H       -4.6609833724  -15.2553778333    7.1446237176
H       -6.3987459728  -14.8234762193    7.0641491092
H       -5.7636645817  -16.1681312969    6.0484229574
C        0.4516701789  -10.9773318288    6.5222425796
O        1.2221836055  -11.8072597084    7.3950577989
C        0.5891519862  -12.8199300237    7.9773253861
O       -0.5778387245  -13.0794995743    7.7192460402
O        1.3883490279  -13.4396656424    8.8204261514
C        0.9194539750  -14.6342552789    9.4712317112
H        0.0007180858  -11.5777797574    5.7238397762
H       -0.3328931301  -10.4607019499    7.0908344303
H        1.1614617878  -10.2574108410    6.1039785151
H        1.7920235727  -15.2886669230    9.5591882902
H        0.5099512744  -14.3668044563   10.4507701621
H        0.1459360224  -15.1252412895    8.8758014238
N        0.9921778671  -16.3087307416    4.2516331411
S        2.4875474557  -16.6870252360    3.7521360342
O        2.3728915570  -17.3805797434    2.4796721042
O        3.5180080981  -15.6792818217    3.9600581101
F        2.8711621831  -17.8833079716    4.8333378167
S        0.7114260785  -15.3056292525    5.4410301272
O        1.7964239009  -14.9297204492    6.3342129046
O       -0.6019240087  -15.6108758919    6.0360827912
F        0.3722246632  -13.8826469484    4.6202213644
N       -4.3344051558  -13.6097218653    9.7377400289
S       -3.1067163572  -14.5771327587    9.9818256313
O       -2.7110176892  -15.1532263964    8.6774991228
O       -2.0582343473  -14.1555909923   10.9001149814
F       -3.7931739569  -15.8774415831   10.7520090747
S       -4.8924391783  -12.6263503441   10.9161542475
O       -3.8063967126  -11.8283738070   11.4632563211
O       -5.9081979995  -13.2252579447   11.7760260246
F       -5.7156132714  -11.6170422869    9.9024995195
Li      -1.7269554535  -14.4277436011    7.1300482385
43   
Iteration 9 Energy -3396.60601463
C       -2.7900180315  -12.3096986450    3.9234543089
O       -4.0612715609  -12.8989633101    4.2441780395
C       -4.0868866792  -13.7415222132    5.2687391355
O       -3.1141440781  -13.9872955109    5.9502998437
O       -5.2956482322  -14.2574499918    5.4100877883
C       -5.5223749639  -15.1782440788    6.4969258940
H       -2.6332957199  -11.4214131793    4.5494570914
H       -1.9747794599  -13.0228787849    4.0845000423
H       -2.8538618024  -12.0229498759    2.8697097504
H       -4.6501335049  -15.2311925616    7.1537430017
H       -6.3886253734  -14.8079494021    7.0541874651
H       -5.7393081930  -16.1592136071    6.0576142661
C        0.4572474265  -10.9825020091    6.5259793576
O        1.2241295473  -11.8043444423    7.4106470702
C        0.5826709500  -12.8138077187    7.9832448531
O       -0.5787778895  -13.1111908626    7.7499168685
O        1.3855099824  -13.4239455641    8.8221401769
C        0.9189087467  -14.6217520912    9.4667162642
H        0.0129549703  -11.5907895604    5.7295042755
H       -0.3323050989  -10.4642557818    7.0854771096
H        1.1674934843  -10.2640547966    6.1068300812
H        1.7922897738  -15.2736562326    9.5514849996
H        0.5079320246  -14.3614685884   10.4469894533
H        0.1473271117  -15.1110495169    8.8680365189
N        0.9793468763  -16.3114950444    4.2535938724
S        2.4764739872  -16.6836106495    3.7530574884
O        2.3623220630  -17.3874537784    2.4856096670
O        3.4996715055  -15.6661008188    3.9498171878
F        2.8739063037  -17.8688430193    4.8386727698
S        0.7010411199  -15.3086406790    5.4433183839
O        1.7869250120  -14.9432364764    6.3424013845
O       -0.6189634522  -15.6044046259    6.0310167259
F        0.3793950243  -13.8821915265    4.6246373577
N       -4.3218321160  -13.6163692639    9.7339286518
S       -3.1009039898  -14.5898730522    9.9764076758
O       -2.7248876252  -15.1793658769    8.6745466247
O       -2.0394384491  -14.1784552635   10.8850527448
F       -3.7894462734  -15.8823088901   10.7494697384
S       -4.8634316005  -12.6224404908   10.9120275606
O       -3.8618937044  -11.7532177911   11.5135842496
O       -5.8913199758  -13.2328827287   11.7475494920
F       -5.7000722409  -11.6439198403    9.8855637340
Li      -1.7390984572  -14.4864039715    7.1377780113
43   
Iteration 10 Energy -3396.60663136
C       -2.8029727618  -12.2974292412    3.9068142361
O       -4.0692586506  -12.8872804030    4.2391430543
C       -4.0619056712  -13.7153647641    5.2752445067
O       -3.1052932899  -13.9584758952    5.9797729737
O       -5.2688310312  -14.2248042354    5.4227364461
C       -5.5022729395  -15.1438723861    6.5114010946
H       -2.6314272004  -11.4225593366    4.5473798603
H       -1.9911233871  -13.0188458099    4.0450895174
H       -2.8804277861  -11.9936507994    2.8589376374
H       -4.6314484245  -15.2045656163    7.1691500093
H       -6.3675179509  -14.7681933688    7.0671560012
H       -5.7248585573  -16.1237471395    6.0724950843
C        0.4517115909  -10.9951319228    6.5294872970
O        1.2339976090  -11.7773827905    7.4361984521
C        0.6084989015  -12.7993820033    8.0017619226
O       -0.5477586764  -13.0888294069    7.7421320035
O        1.3971440977  -13.4126310682    8.8511836114
C        0.9178447910  -14.6160403864    9.4766102691
H        0.0242544393  -11.6371693054    5.7505857593
H       -0.3520300649  -10.4809647202    7.0725670437
H        1.1462039912  -10.2725847659    6.0923916029
H        1.7869352264  -15.2744137084    9.5637373107
H        0.4969619973  -14.3644266433   10.4550401371
H        0.1496094841  -15.0926145710    8.8619557140
N        0.9653132550  -16.3278421242    4.2410255550
S        2.4654246672  -16.6787861907    3.7378427012
O        2.3505587085  -17.4195692337    2.4916922261
O        3.4634227874  -15.6303879637    3.8988737170
F        2.8912765302  -17.8218267922    4.8557474795
S        0.6837594273  -15.3324701315    5.4349195884
O        1.7555381962  -15.0039828624    6.3655044819
O       -0.6469826785  -15.6427430692    5.9867133867
F        0.3933279440  -13.8856356845    4.6402192600
N       -4.3056028397  -13.6298077346    9.7171451646
S       -3.0951488874  -14.6057399697    9.9909377911
O       -2.7184660333  -15.2266758332    8.7071974563
O       -2.0411406061  -14.1897897326   10.9064960443
F       -3.7971317144  -15.8878195459   10.7605352750
S       -4.8519282066  -12.6296873991   10.8859595935
O       -3.8548419506  -11.7526120975   11.4837820485
O       -5.8773807849  -13.2474593320   11.7186155373
F       -5.6934229938  -11.6649144205    9.8534591339
Li      -1.7553079747  -14.4565442864    7.1899636920
43   
Iteration 11 Energy -3396.60833279
C       -2.7892139094  -12.2923661924    3.9104241792
O       -4.0549365443  -12.8919590630    4.2331622832
C       -4.0628447458  -13.7098167901    5.2789513274
O       -3.0974836216  -13.9524196535    5.9720297736
O       -5.2703280348  -14.2179473686    5.4338240227
C       -5.5005532470  -15.1174899717    6.5393770444
H       -2.6264840942  -11.4175129844    4.5534043786
H       -1.9725786064  -13.0086196721    4.0487904298
H       -2.8651939086  -11.9852338371    2.8636374901
H       -4.6349105700  -15.1496808207    7.2058170264
H       -6.3759038488  -14.7433975550    7.0791822638
H       -5.7033364566  -16.1099367937    6.1196726714
C        0.4516000990  -11.0014649919    6.5239545774
O        1.2127420124  -11.7703988576    7.4616870238
C        0.5896304014  -12.8038242080    8.0106494775
O       -0.5604245705  -13.1171523569    7.7458573365
O        1.3816312905  -13.4045076805    8.8669078899
C        0.9254856776  -14.6164198619    9.4921261101
H        0.0423757585  -11.6540540382    5.7447450379
H       -0.3630559933  -10.4791576759    7.0420514597
H        1.1565729107  -10.2849887222    6.0933646642
H        1.8057201699  -15.2594153343    9.5756668376
H        0.5044028867  -14.3743857901   10.4727496561
H        0.1635212675  -15.1055530465    8.8814512483
N        0.9314832737  -16.3389513033    4.2486557321
S        2.4341991236  -16.6682634933    3.7345552401
O        2.3225519191  -17.4441876547    2.5095367994
O        3.4056265675  -15.5892624549    3.8521563827
F        2.9093104035  -17.7700959932    4.8710461657
S        0.6540107044  -15.3448296001    5.4464323052
O        1.7173623651  -15.0513820893    6.3991358745
O       -0.6957001140  -15.6178586165    5.9709589320
F        0.4209317854  -13.8850077534    4.6614070357
N       -4.2758261396  -13.6379230966    9.6924544747
S       -3.0718086559  -14.6170872506    9.9841992860
O       -2.6688951064  -15.2306164403    8.7035823281
O       -2.0360818194  -14.2027825331   10.9211285070
F       -3.7875359396  -15.8989553980   10.7370885045
S       -4.8380095163  -12.6366894308   10.8543917754
O       -3.8507877194  -11.7399165196   11.4392514570
O       -5.8547038602  -13.2582795176   11.6947831598
F       -5.6926554781  -11.6983997783    9.8126277134
Li      -1.7442934550  -14.4780437607    7.1699401069
43   
Iteration 12 Energy -3396.60966422
C       -2.7800406734  -12.2925043632    3.9166166913
O       -4.0559831683  -12.8772224159    4.2288565490
C       -4.0851840932  -13.6766779598    5.2883062083
O       -3.1138348671  -13.9101245191    5.9741862940
O       -5.2928550174  -14.1809162362    5.4551296279
C       -5.5028117667  -15.0665997989    6.5753853236
H       -2.6030040976  -11.4294482435    4.5718364685
H       -1.9737487800  -13.0230745332    4.0451857534
H       -2.8508068368  -11.9701601293    2.8743061300
H       -4.6362804486  -15.0665912983    7.2413094416
H       -6.3857813622  -14.7024964630    7.1082622621
H       -5.6799135008  -16.0721930767    6.1756116828
C        0.4546823683  -11.0178897072    6.5233785881
O        1.2027563430  -11.7527418241    7.4995606138
C        0.5890461842  -12.7992192505    8.0331979405
O       -0.5482678502  -13.1413434243    7.7520738703
O        1.3795556612  -13.3853565258    8.8993449273
C        0.9350025983  -14.6074707933    9.5151203231
H        0.0710815955  -11.6956898741    5.7530582414
H       -0.3781295383  -10.4924817531    7.0087063683
H        1.1608907954  -10.3039731721    6.0906966415
H        1.8227705463  -15.2391222003    9.5995762858
H        0.5054493298  -14.3753272439   10.4942580478
H        0.1837755731  -15.1023128044    8.8965202727
N        0.8907363364  -16.3644705427    4.2555034320
S        2.3964982946  -16.6545403465    3.7251435951
O        2.2974287083  -17.4703229722    2.5254186987
O        3.3209997485  -15.5303447149    3.7913214982
F        2.9435997650  -17.6998544824    4.8830268632