37   
Iteration 0 Energy -1966.81421032
C       -2.1321213100   -3.1846804200    8.7051962100
C       -3.5894655700   -2.8346459800    9.0453282500
O       -4.1884726900   -4.0966686000    9.3080520900
C       -3.3002634700   -5.0803996700    9.1215915400
O       -3.5466246100   -6.2373922400    9.2595006500
O       -2.1020437300   -4.6042711600    8.7666757600
H       -1.4261404900   -2.7820023100    9.4338305400
H       -1.8454977400   -2.8582270700    7.7053214500
H       -4.1070693400   -2.3567362200    8.2127807400
H       -3.6737868400   -2.2052833000    9.9322919000
C       -4.6385693600    1.7583805200    4.9233117900
C       -5.4243739800    0.6113940200    5.5785765900
O       -6.7280456500    0.7329283200    5.0236302800
C       -6.7718476600    1.7530482900    4.1592745300
O       -7.7447466300    2.0707204200    3.5491799600
O       -5.5901909700    2.3708184300    4.0616622500
H       -3.7914085400    1.4092570600    4.3320288000
H       -4.2866388300    2.4916064400    5.6501884300
H       -5.4828832200    0.7126843200    6.6628578600
H       -5.0209471900   -0.3715878000    5.3313383300
C        1.7876874300    0.6019680300    8.5323284600
C        1.0020971800   -0.1754757600    9.6000469800
O        1.9769763200   -0.4657998500   10.5933915600
C        3.1773616500   -0.0158232200   10.2120882100
O        4.1739723500   -0.1433977100   10.8521203600
O        3.1222791900    0.5965942000    9.0236141300
H        1.4472221700    1.6334835700    8.4305778700
H        1.7590034900    0.1154568700    7.5568029700
H        0.5930129400   -1.1107602400    9.2149505800
H        0.1971463900    0.4115840900   10.0426881300
P       -1.9843105100    0.4025473700    7.3819729500
F       -2.9844596300   -0.7545474100    6.8101236900
F       -1.8446672900    1.0122512000    5.8919264200
F       -3.2673548100    1.3509224400    7.6656216000
F       -0.9902459500    1.5422313500    7.9588546900
F       -2.1229598700   -0.2316928400    8.8785770100
F       -0.7139752700   -0.5795047100    7.1127489500
37   
Iteration 1 Energy -1966.81748193
C       -2.1251970789   -3.1769958115    8.7036463680
C       -3.5838488758   -2.8194588759    9.0447070757
O       -4.1830129183   -4.0979480497    9.3133281533
C       -3.3120290021   -5.1113155148    9.1342235888
O       -3.5428255056   -6.2801154143    9.2649509162
O       -2.1145573280   -4.6124776267    8.7709099980
H       -1.4091797830   -2.7784939854    9.4307603742
H       -1.8327712310   -2.8533104275    7.7010599479
H       -4.1031717554   -2.3382178715    8.2104399348
H       -3.6707101235   -2.1854562334    9.9334693993
C       -4.6348936127    1.7570878361    4.9251596501
C       -5.4190635731    0.6060088139    5.5831974930
O       -6.7339547028    0.7362853320    5.0161448283
C       -6.8075802776    1.7565325434    4.1391174128
O       -7.7762646018    2.0930199666    3.5177473888
O       -5.6082503418    2.3637157887    4.0572492072
H       -3.7831298779    1.4105612003    4.3318144057
H       -4.2802988816    2.4956954573    5.6506180061
H       -5.4782308503    0.7044958550    6.6713086395
H       -5.0137760470   -0.3811357379    5.3385795235
C        1.7815489555    0.6009204431    8.5303572181
C        0.9935559348   -0.1776565770    9.5999324749
O        1.9877959102   -0.4629731839   10.5981630148
C        3.2084353616   -0.0232488748   10.2360318263
O        4.2230505215   -0.1388040257   10.8639356355
O        3.1274499132    0.5848271924    9.0359561332
H        1.4441861518    1.6369959555    8.4253529693
H        1.7533180870    0.1167742486    7.5490241036
H        0.5802811554   -1.1170507965    9.2198420874
H        0.1848665006    0.4085093707   10.0452114722
P       -1.9910111048    0.4042043993    7.3782697336
F       -2.9855036207   -0.7748458243    6.7925397557
F       -1.8239072337    1.0239431555    5.8753758124
F       -3.2679864952    1.3810589495    7.6939890513
F       -0.9944187845    1.5598545603    7.9694342792
F       -2.1501860920   -0.2395014329    8.8880310435
F       -0.7132445829   -0.5915049849    7.0874771952
37   
Iteration 2 Energy -1966.80666508
C       -2.1148385800   -3.1776032252    8.7035910919
C       -3.5788213705   -2.8218342417    9.0481940129
O       -4.1815292763   -4.1088364571    9.3224827143
C       -3.3045596354   -5.1228726167    9.1381140495
O       -3.5708613769   -6.2862337478    9.2829204015
O       -2.1011823814   -4.6230122665    8.7690214614
H       -1.3925486298   -2.7832695694    9.4301583551
H       -1.8194502404   -2.8559062015    7.6993370514
H       -4.1055065036   -2.3431491949    8.2146590044
H       -3.6720833334   -2.1887609545    9.9398169111
C       -4.6335531837    1.7598220014    4.9223683721
C       -5.4265060280    0.6059756350    5.5787657421
O       -6.7492356353    0.7399728788    5.0054700687
C       -6.8146824696    1.7654829357    4.1261405479
O       -7.8039366377    2.0761994493    3.5168867861
O       -5.6078852706    2.3740464232    4.0448170800
H       -3.7792701597    1.4140172749    4.3281860293
H       -4.2785124474    2.5017319504    5.6472398869
H       -5.4941039645    0.7004138376    6.6687922858
H       -5.0276496409   -0.3862074407    5.3347376088
C        1.7804961535    0.6007278841    8.5277731627
C        0.9983643518   -0.1804552105    9.6072977079
O        2.0040700491   -0.4619940644   10.6098105793
C        3.2255346858   -0.0202105667   10.2344716666
O        4.2268689272   -0.1509310717   10.8871909542
O        3.1396858474    0.5851050703    9.0253749511
H        1.4455143676    1.6396468215    8.4225249524
H        1.7498231809    0.1175097715    7.5434532630
H        0.5852005333   -1.1264477168    9.2382787413
H        0.1895587207    0.4021356797   10.0615774448
P       -1.9741422085    0.4053693497    7.3849646182
F       -3.0722288403   -0.6806929575    6.7704991160
F       -1.8987155457    1.0710149811    5.8789164392
F       -3.3218306611    1.3430304064    7.5695220405
F       -0.9198714168    1.5182414481    7.9991671878
F       -2.0972266572   -0.2688094761    8.8999768458
F       -0.6539031357   -0.5747493790    7.1560210680
37   
Iteration 3 Energy -1966.81666912
C       -2.1215886821   -3.1760248321    8.7030819909
C       -3.5835908017   -2.8219336665    9.0456186263
O       -4.1844792450   -4.1035316172    9.3154025097
C       -3.3058820356   -5.1119196423    9.1333352357
O       -3.5590242025   -6.2765535287    9.2707385661
O       -2.1044810823   -4.6150167463    8.7686321763
H       -1.4049580068   -2.7771442801    9.4303967701
H       -1.8292388972   -2.8517504721    7.7001192314
H       -4.1056564228   -2.3418262807    8.2117698118
H       -3.6731875574   -2.1889875904    9.9356588633
C       -4.6323909249    1.7584941153    4.9247388981
C       -5.4219514061    0.6064701424    5.5815144997
O       -6.7400146492    0.7372625898    5.0128038538
C       -6.8041918997    1.7607807058    4.1363574329
O       -7.7857258961    2.0803959209    3.5240818517
O       -5.6030101595    2.3711170373    4.0524045191
H       -3.7798331799    1.4111174099    4.3318172020
H       -4.2774867840    2.4970493523    5.6509931963
H       -5.4843569997    0.7036539594    6.6701807632
H       -5.0193147360   -0.3823913009    5.3368594469
C        1.7809198871    0.6019641991    8.5277883112
C        0.9958791268   -0.1782609658    9.6021087335
O        1.9932180783   -0.4637938717   10.6025921660
C        3.2114351332   -0.0203013384   10.2310653699
O        4.2156345404   -0.1467860509   10.8756496489
O        3.1324890415    0.5891145979    9.0280260496
H        1.4427260038    1.6383767679    8.4228520095
H        1.7514135382    0.1174103224    7.5459118544
H        0.5827481661   -1.1196396689    9.2252236257
H        0.1874360018    0.4066845404   10.0507968829
P       -1.9826850373    0.4029893542    7.3822909969
F       -3.0303453551   -0.7310591271    6.7863746318
F       -1.8660734893    1.0428249528    5.8763508368
F       -3.2989218326    1.3571513089    7.6291799163
F       -0.9537163602    1.5355981335    7.9813218628
F       -2.1155917035   -0.2538417775    8.8955098992
F       -0.6801798138   -0.5815351898    7.1296921308
37   
Iteration 4 Energy -1966.81883578
C       -2.1214161992   -3.1773404634    8.7032183619
C       -3.5836016770   -2.8241159602    9.0459845945
O       -4.1851218324   -4.1042598743    9.3159045445
C       -3.3033823058   -5.1085919084    9.1324802791
O       -3.5620945267   -6.2702011874    9.2715619720
O       -2.1012776239   -4.6153308228    8.7678131746
H       -1.4052289993   -2.7785522153    9.4304547122
H       -1.8293658253   -2.8531559747    7.7004450861
H       -4.1060861355   -2.3446325427    8.2124849419
H       -3.6735337845   -2.1918283854    9.9359565980
C       -4.6336579412    1.7590326991    4.9236676281
C       -5.4242281337    0.6072869319    5.5798646514
O       -6.7416925059    0.7371414392    5.0121416642
C       -6.8005217903    1.7611735561    4.1372067079
O       -7.7839385369    2.0757468429    3.5283173499
O       -5.6013008629    2.3733735743    4.0509250046
H       -3.7814593579    1.4114682261    4.3310548559
H       -4.2790257801    2.4971807909    5.6498912519
H       -5.4874149466    0.7042955983    6.6681234571
H       -5.0224334121   -0.3814263434    5.3350834102
C        1.7823582573    0.6018282275    8.5284702643
C        0.9983229898   -0.1784182596    9.6035381618
O        1.9942499455   -0.4641831420   10.6039412206
C        3.2095871567   -0.0190718424   10.2278747265
O        4.2093484797   -0.1483479676   10.8759515221
O        3.1340242939    0.5905099594    9.0255283484
H        1.4441158328    1.6378449814    8.4238456747
H        1.7525285493    0.1172067373    7.5470759703
H        0.5856163345   -1.1198690082    9.2273860269
H        0.1904135217    0.4061676539   10.0528461880
P       -1.9864219300    0.4044215080    7.3800925446
F       -3.0093099730   -0.7534952802    6.7880271555
F       -1.8437519624    1.0372611417    5.8736429546
F       -3.2856668165    1.3722399667    7.6615828700
F       -0.9721950454    1.5503315274    7.9775136137
F       -2.1348740481   -0.2480098111    8.8929556815
F       -0.6954668813   -0.5884524563    7.1065426771
37   
Iteration 5 Energy -1966.81896525
C       -2.1231178622   -3.1858477068    8.7061354637
C       -3.5798161102   -2.8260125152    9.0486759493
O       -4.1858772814   -4.1009291988    9.3209858570
C       -3.3089468153   -5.1088094266    9.1341848942
O       -3.5469003255   -6.2730584326    9.2757585064
O       -2.1066498949   -4.6221676488    8.7698243273
H       -1.4046106189   -2.7942929820    9.4334296031
H       -1.8293996671   -2.8676523205    7.7028378778
H       -4.1029988912   -2.3491637473    8.2152932462
H       -3.6673511645   -2.1949193147    9.9383780870
C       -4.6459286237    1.7586133576    4.9179266002
C       -5.4308222672    0.6083454967    5.5749985006
O       -6.7476029899    0.7347638958    5.0108119254
C       -6.8088238618    1.7584566108    4.1356838853
O       -7.7788884145    2.0871664883    3.5157505015
O       -5.6127249201    2.3711336399    4.0460288378
H       -3.7963205149    1.4141991720    4.3216901485
H       -4.2945533133    2.5004306589    5.6404772457
H       -5.4956822643    0.7063065270    6.6621627189
H       -5.0309205986   -0.3795553222    5.3283308046
C        1.7887708708    0.5977058275    8.5366713018
C        1.0033865016   -0.1790788105    9.6079452924
O        1.9951073975   -0.4643984380   10.6094614932
C        3.2114496911   -0.0219682926   10.2333524708
O        4.2218068364   -0.1409480880   10.8640832670
O        3.1393583969    0.5834562091    9.0312938407
H        1.4573679757    1.6350336932    8.4340350673
H        1.7617624543    0.1138217337    7.5560512762
H        0.5934989825   -1.1217004561    9.2340417227
H        0.1973450562    0.4060934850   10.0578426753
P       -1.9871171693    0.4111716703    7.3786582624
F       -2.9994382249   -0.7464251346    6.7758604877
F       -1.8329974737    1.0386828576    5.8735329145
F       -3.2783373987    1.3812260801    7.6748965280
F       -0.9788102858    1.5546135749    7.9839521591
F       -2.1448812573   -0.2407108307    8.8877642836
F       -0.7047990533   -0.5851265642    7.0951193286
37   
Iteration 6 Energy -1966.81880793
C       -2.1196929877   -3.1893504634    8.7064728916
C       -3.5757025659   -2.8295219675    9.0504191289
O       -4.1841467689   -4.1034790541    9.3258567971
C       -3.3049794540   -5.1087585299    9.1375716936
O       -3.5562324205   -6.2700925279    9.2813145720
O       -2.1019749152   -4.6264517753    8.7688947629
H       -1.3998275561   -2.8003257164    9.4335940853
H       -1.8266911718   -2.8723485987    7.7026549070
H       -4.1008863898   -2.3552390824    8.2169550995
H       -3.6634603717   -2.1988600185    9.9401254685
C       -4.6526021127    1.7596776764    4.9129540139
C       -5.4402000903    0.6105567893    5.5681835722
O       -6.7576898830    0.7370931578    5.0038572186
C       -6.8120025384    1.7611080893    4.1291095064
O       -7.7881603196    2.0817512566    3.5142551329
O       -5.6162879758    2.3748832311    4.0384053321
H       -3.8031249689    1.4150107065    4.3169236380
H       -4.3026943409    2.5019821124    5.6355082015
H       -5.5079893061    0.7082137100    6.6550619122
H       -5.0433244163   -0.3781286784    5.3206666782
C        1.7934397601    0.5957255391    8.5399677180
C        1.0113122609   -0.1800298586    9.6138819799
O        2.0037385372   -0.4637551350   10.6162957221
C        3.2175992901   -0.0219378193   10.2323416209
O        4.2226753764   -0.1454717460   10.8708593901
O        3.1468918869    0.5807060477    9.0285844891
H        1.4642941556    1.6338122092    8.4392797622
H        1.7640190641    0.1119483103    7.5595622035
H        0.6030245977   -1.1247474545    9.2437771307
H        0.2063886940    0.4047751214   10.0658973783
P       -1.9888639361    0.4133395872    7.3755947422
F       -3.0026303547   -0.7540129792    6.7934906505
F       -1.8215074249    1.0737442174    5.8852476852
F       -3.2767108131    1.3912130706    7.6632859449
F       -0.9779486729    1.5584352294    7.9745246664
F       -2.1537795383   -0.2574058990    8.8758950330
F       -0.7075968378   -0.5864865789    7.0981832018
37   
Iteration 7 Energy -1966.81917612
C       -2.1187462677   -3.1887836056    8.7062260979
C       -3.5754325264   -2.8301245896    9.0505449454
O       -4.1835329683   -4.1051355890    9.3261041325
C       -3.3036909486   -5.1094420704    9.1376269661
O       -3.5605442259   -6.2698787148    9.2826063528
O       -2.1004788312   -4.6265690604    8.7685102755
H       -1.3989268713   -2.7992459831    9.4333864611
H       -1.8261533441   -2.8711024787    7.7023469386
H       -4.1009744984   -2.3559505023    8.2170599511
H       -3.6635606889   -2.1995226828    9.9404306605
C       -4.6518824852    1.7599202667    4.9129605600
C       -5.4409073823    0.6108580655    5.5676380371
O       -6.7588268719    0.7381626843    5.0024508768
C       -6.8118388569    1.7621843716    4.1279784300
O       -7.7913140661    2.0787830277    3.5154207690
O       -5.6154618427    2.3758361928    4.0376916362
H       -3.8020517698    1.4147337169    4.3173820977
H       -4.3018198149    2.5018555237    5.6360504766
H       -5.5091244599    0.7083900395    6.6546489922
H       -5.0443720029   -0.3781609523    5.3201470129
C        1.7931211595    0.5959769235    8.5392218794
C        1.0119514790   -0.1800716737    9.6142628501
O        2.0056081764   -0.4634939594   10.6167161613
C        3.2187959842   -0.0214770832   10.2316037490
O        4.2213763839   -0.1476860188   10.8743704803
O        3.1474581968    0.5811660026    9.0273440235
H        1.4633975430    1.6340797400    8.4386113711
H        1.7629103827    0.1120132779    7.5587570877
H        0.6036112109   -1.1251133597    9.2445751688
H        0.2070291912    0.4046610428   10.0666937765
P       -1.9883384640    0.4142572382    7.3768419192
F       -3.0030500331   -0.7430288356    6.7754137671
F       -1.8282236776    1.0565558258    5.8773465288
F       -3.2790406374    1.3876841408    7.6696181337
F       -0.9766039868    1.5533062321    7.9875263931
F       -2.1487712066   -0.2458130795    8.8830001430
F       -0.7049437127   -0.5828167886    7.0963796913
37   
Iteration 8 Energy -1966.81916358
C       -2.1173918503   -3.1885884503    8.7055525650
C       -3.5728899307   -2.8268854037    9.0502664915
O       -4.1803959831   -4.1025476204    9.3277549755
C       -3.3060393326   -5.1123597390    9.1410928455
O       -3.5548304386   -6.2752090895    9.2820523058
O       -2.1048440599   -4.6271584197    8.7689504635
H       -1.3965661830   -2.7993545246    9.4322684951
H       -1.8247380794   -2.8702536339    7.7016591924
H       -4.0973585576   -2.3517909008    8.2162523817
H       -3.6586532151   -2.1938013552    9.9389337014
C       -4.6544782196    1.7592878321    4.9121451771
C       -5.4421492010    0.6102203521    5.5675064214
O       -6.7600471644    0.7392941521    5.0008976923
C       -6.8189721848    1.7613733728    4.1240152170
O       -7.7931985390    2.0863259558    3.5071566388
O       -5.6210713385    2.3721280182    4.0367301031
H       -3.8036157630    1.4138402329    4.3176998411
H       -4.3044046753    2.5013742742    5.6354382107
H       -5.5084887882    0.7080857574    6.6548565046
H       -5.0439238691   -0.3785846709    5.3206019902
C        1.7932241760    0.5945296419    8.5406569851
C        1.0107090830   -0.1805228545    9.6149481732
O        2.0060217173   -0.4619393726   10.6173406467
C        3.2225778416   -0.0245453672   10.2364126885
O        4.2306317358   -0.1458736290   10.8718172366
O        3.1474463416    0.5753501621    9.0312164722
H        1.4643851416    1.6332404098    8.4404312306
H        1.7608639766    0.1113004769    7.5596576465
H        0.6017947986   -1.1253540471    9.2445622789
H        0.2046757459    0.4049927421   10.0648435505
P       -1.9878437823    0.4142087403    7.3781869953
F       -3.0033045571   -0.7391510129    6.7708003781
F       -1.8275902762    1.0558280458    5.8787946715
F       -3.2790437096    1.3868942072    7.6705840984
F       -0.9771892436    1.5523611849    7.9925043015
F       -2.1512180441   -0.2471010373    8.8836141237
F       -0.7046400463   -0.5826936205    7.0955970698
37   
Iteration 9 Energy -1966.81922738
C       -2.1164503428   -3.1890765216    8.7053653182
C       -3.5723275993   -2.8280053684    9.0505620988
O       -4.1802768191   -4.1033272778    9.3284979593
C       -3.3041457142   -5.1111981203    9.1407898674
O       -3.5582868565   -6.2725674081    9.2836343550
O       -2.1023384009   -4.6275956211    8.7681988873
H       -1.3956681259   -2.7998415964    9.4320602365
H       -1.8240556921   -2.8706147125    7.7014767752
H       -4.0973848263   -2.3533243222    8.2167474577
H       -3.6582208133   -2.1951438782    9.9392654466
C       -4.6551612965    1.7596437636    4.9113792805
C       -5.4441661952    0.6107225213    5.5662102609
O       -6.7620528555    0.7396891939    4.9996461997
C       -6.8176620389    1.7622516563    4.1233387135
O       -7.7946171121    2.0829519576    3.5087535953
O       -5.6201120619    2.3737696696    4.0351672075
H       -3.8042298255    1.4138321035    4.3173323431
H       -4.3052124383    2.5015143387    5.6348817374
H       -5.5112598834    0.7084039155    6.6534800916
H       -5.0466440094   -0.3782768903    5.3192456472
C        1.7939372383    0.5943542585    8.5408145825
C        1.0123224365   -0.1807236814    9.6161879987
O        2.0075069547   -0.4620514106   10.6187064886
C        3.2227314578   -0.0239995471   10.2347327086
O        4.2279671757   -0.1479779622   10.8739074179
O        3.1488373059    0.5757611342    9.0293105250
H        1.4650860695    1.6330396088    8.4408602536
H        1.7608528850    0.1110339130    7.5599610188
H        0.6035895040   -1.1258972056    9.2465636037
H        0.2065591852    0.4046310766   10.0666416970
P       -1.9882226962    0.4147462932    7.3779918776
F       -3.0032544932   -0.7393808172    6.7709959472
F       -1.8267090684    1.0585787509    5.8794269327
F       -3.2790552553    1.3882653469    7.6703646700
F       -0.9770690913    1.5526557562    7.9923903829
F       -2.1520694473   -0.2486951111    8.8825139877
F       -0.7050404921   -0.5826060114    7.0963966832
37   
Iteration 10 Energy -1966.81924235
C       -2.1144351437   -3.1905114575    8.7048590336
C       -3.5697277468   -2.8281125449    9.0510640726
O       -4.1786543354   -4.1025403724    9.3307785427
C       -3.3032373611   -5.1107865772    9.1413468503
O       -3.5585173955   -6.2715570972    9.2867900244
O       -2.1012093661   -4.6290615490    8.7671649220
H       -1.3927879089   -2.8025938683    9.4313640144
H       -1.8220257363   -2.8724864668    7.7008651476
H       -4.0956161204   -2.3540497527    8.2174454176
H       -3.6545415135   -2.1947194700    9.9394029423
C       -4.6584708755    1.7596322379    4.9094863851
C       -5.4483247479    0.6111010446    5.5639752209
O       -6.7660478620    0.7404234102    4.9972218893
C       -6.8198839462    1.7629370593    4.1205973372
O       -7.7965600853    2.0828690014    3.5052260752
O       -5.6221864801    2.3740104468    4.0320890238
H       -3.8072811030    1.4136464789    4.3159638083
H       -4.3091550197    2.5019791268    5.6327622483
H       -5.5162083596    0.7086594434    6.6511860279
H       -5.0516460649   -0.3781791767    5.3169169338
C        1.7955690893    0.5928806939    8.5425396898
C        1.0143956358   -0.1813255366    9.6188169871
O        2.0095436585   -0.4615526971   10.6216447250
C        3.2247190998   -0.0251555685   10.2352117184
O        4.2299207806   -0.1497451913   10.8742648075
O        3.1512181874    0.5726385091    9.0288698694
H        1.4683488488    1.6321341552    8.4433564088
H        1.7609477966    0.1098731487    7.5616552831
H        0.6060854102   -1.1272174555    9.2505600153
H        0.2087643833    0.4041584591   10.0692545669
P       -1.9887982965    0.4163823350    7.3778601572
F       -3.0044166212   -0.7359006447    6.7681416635
F       -1.8235395278    1.0624566492    5.8805585601
F       -3.2800882852    1.3890156825    7.6715271501
F       -0.9768974059    1.5520896912    7.9952544225
F       -2.1552659709   -0.2497000485    8.8808997639
F       -0.7051293258   -0.5805390499    7.0965666077
37   
Iteration 11 Energy -1966.81923984
C       -2.1115304319   -3.1922494846    8.7039592352
C       -3.5659411672   -2.8280109310    9.0516927454
O       -4.1761152743   -4.1012273056    9.3339454902
C       -3.3017200662   -5.1101029153    9.1426735952
O       -3.5586441922   -6.2701798828    9.2905108720
O       -2.0996098374   -4.6308225494    8.7658165020
H       -1.3885761872   -2.8059192300    9.4299819624
H       -1.8193567160   -2.8748622328    7.6997230613
H       -4.0928933359   -2.3547409258    8.2183167698
H       -3.6491463723   -2.1937625453    9.9394385422
C       -4.6628971908    1.7593924595    4.9071208353
C       -5.4540932785    0.6115149237    5.5610541635
O       -6.7714604478    0.7414326352    4.9937772461
C       -6.8227941980    1.7637178252    4.1165260830
O       -7.7990261311    2.0830882647    3.5002323025
O       -5.6248279292    2.3740961494    4.0279938498
H       -3.8112511809    1.4130499163    4.3145108973
H       -4.3144535848    2.5023016362    5.6302010390
H       -5.5230906543    0.7090308827    6.6481757697
H       -5.0584898949   -0.3781680237    5.3140351821
C        1.7976074174    0.5907259102    8.5448798881
C        1.0169861853   -0.1821396308    9.6224033273
O        2.0121478412   -0.4610377635   10.6255345431
C        3.2273693749   -0.0270633219   10.2358947719
O        4.2326189819   -0.1524036565   10.8746576882
O        3.1542140963    0.5681900443    9.0284123276
H        1.4725309531    1.6307283662    8.4466301443
H        1.7608208329    0.1080541443    7.5640152731
H        0.6089990613   -1.1288805445    9.2559100468
H        0.2116340116    0.4037095613   10.0727550671
P       -1.9897896227    0.4182004748    7.3782615506
F       -3.0015393599   -0.7336643069    6.7611162719
F       -1.8258890998    1.0690206548    5.8828126213
F       -3.2778761796    1.3957257172    7.6699313784
F       -0.9793527553    1.5520537189    8.0016135005
F       -2.1564145478   -0.2523435436    8.8792846483
F       -0.7074843456   -0.5812674404    7.0991188825
37   
Iteration 12 Energy -1966.81926471
C       -2.1100128465   -3.1926675948    8.7033606470
C       -3.5639278772   -2.8275777479    9.0518654157
O       -4.1742723764   -4.1005900035    9.3356042988
C       -3.3010369437   -5.1103966316    9.1441423657
O       -3.5585869403   -6.2704332898    9.2916220143
O       -2.0994526134   -4.6314300938    8.7650755201
H       -1.3863410922   -2.8069658249    9.4290661942
H       -1.8182814208   -2.8751341554    7.6990041685
H       -4.0910917235   -2.3547032501    8.2183408011
H       -3.6462572176   -2.1924951324    9.9391195397
C       -4.6646408809    1.7590814157    4.9063118133
C       -5.4564823606    0.6116052424    5.5599542634
O       -6.7737163193    0.7422986441    4.9920916769
C       -6.8246776953    1.7639053221    4.1140487781
O       -7.8006090330    2.0837606121    3.4974392649
O       -5.6261965032    2.3734401265    4.0262473641
H       -3.8125355086    1.4123914609    4.3145026491
H       -4.3166676826    2.5021120677    5.6295436447
H       -5.5256305797    0.7092598721    6.6470928718
H       -5.0611542708   -0.3782607712    5.3130483762
C        1.7980633085    0.5896530933    8.5458266635
C        1.0177122949   -0.1825257838    9.6238944483
O        2.0133203643   -0.4602867179   10.6271687267
C        3.2290004523   -0.0283734457   10.2366897491
O        4.2345937769   -0.1537068653   10.8750059459
O        3.1551619389    0.5652303373    9.0284076319
H        1.4739875844    1.6300798486    8.4482217554
H        1.7596724154    0.1072509741    7.5648681721
H        0.6099303121   -1.1296620717    9.2580643847
H        0.2122133520    0.4035804267   10.0736974510
P       -1.9899475342    0.4193078844    7.3782274861
F       -3.0040275864   -0.7304078165    6.7609222909
F       -1.8211845220    1.0710174038    5.8837283342
F       -3.2801545917    1.3935422133    7.6714186481
F       -0.9784241133    1.5516909373    8.0027357366
F       -2.1601639499   -0.2525022864    8.8783631122
F       -0.7065948741   -0.5786078628    7.0977600782
37   
Iteration 13 Energy -1966.81927591
C       -2.1075717121   -3.1932578005    8.7020990476
C       -3.5607776831   -2.8267913346    9.0520414582
O       -4.1714211162   -4.0991564583    9.3381202490
C       -3.2997023563   -5.1099447935    9.1452049852
O       -3.5575640329   -6.2697548476    9.2938966356
O       -2.0985854902   -4.6320658836    8.7632755495
H       -1.3828846656   -2.8085839374    9.4273795803
H       -1.8163495200   -2.8755634762    7.6976312184
H       -4.0886525906   -2.3545264200    8.2185858701
H       -3.6414532920   -2.1905166941    9.9385524891
C       -4.6671991834    1.7583527400    4.9053521343
C       -5.4601991865    0.6115126055    5.5586232165
O       -6.7770090386    0.7433085894    4.9900044679
C       -6.8266795506    1.7641141118    4.1109181134
O       -7.8015223353    2.0846111349    3.4929355577
O       -5.6275279224    2.3723530075    4.0236492079
H       -3.8143878940    1.4110324790    4.3149130323
H       -4.3199930665    2.5017231288    5.6286218059
H       -5.5297516108    0.7092944048    6.6457438678
H       -5.0653975904   -0.3786358046    5.3119040893
C        1.7985597711    0.5878373439    8.5472590940
C        1.0183793706   -0.1831665717    9.6262247933
O        2.0141850860   -0.4592696694   10.6297872837
C        3.2304145056   -0.0305479823   10.2373956013
O        4.2365765580   -0.1561729177   10.8747433769
O        3.1563274115    0.5604373677    9.0278804530
H        1.4763642271    1.6289788432    8.4506390940
H        1.7576405354    0.1059081904    7.5662007375
H        0.6109089985   -1.1309072997    9.2614767442
H        0.2126912085    0.4033384711   10.0751541132
P       -1.9904369336    0.4208098143    7.3784991647
F       -3.0045956215   -0.7272709382    6.7583136345
F       -1.8189838238    1.0748468444    5.8854110319
F       -3.2811159199    1.3943309271    7.6715348774
F       -0.9791292790    1.5516005554    8.0063055782
F       -2.1630931530   -0.2532086843    8.8773605571
F       -0.7068761862   -0.5769183707    7.0979097448
37   
Iteration 14 Energy -1966.81929068
C       -2.1039402526   -3.1935641451    8.6997713692
C       -3.5561159870   -2.8253284270    9.0521205067
O       -4.1668386523   -4.0967795369    9.3418405282
C       -3.2972091962   -5.1088731775    9.1467919663
O       -3.5552383794   -6.2685216600    9.2964218410
O       -2.0970271018   -4.6323544136    8.7600998026
H       -1.3776611959   -2.8102692614    9.4242634487
H       -1.8137527005   -2.8754929380    7.6951092941
H       -4.0852600839   -2.3541172206    8.2188218147
H       -3.6343483005   -2.1872203517    9.9374639981
C       -4.6700510716    1.7568848615    4.9046732757
C       -5.4651864776    0.6111346908    5.5573564664
O       -6.7811974461    0.7446674894    4.9874501427
C       -6.8283093662    1.7640638012    4.1065932604
O       -7.8017882784    2.0852743803    3.4868718489
O       -5.6280994756    2.3703387818    4.0201868302
H       -3.8160234145    1.4084398528    4.3166460751
H       -4.3240781638    2.5007773287    5.6280256254
H       -5.5355117132    0.7091929439    6.6444256690
H       -5.0713187524   -0.3795436880    5.3111057322
C        1.7984327040    0.5850737257    8.5489783803
C        1.0183527751   -0.1840685589    9.6292906978
O        2.0142746196   -0.4577496613   10.6333221562
C        3.2314065392   -0.0341864444   10.2380165050
O        4.2383814206   -0.1604177328   10.8739310751
O        3.1571115305    0.5529100869    9.0266299787