36   
Iteration 0 Energy -786.70526801
C       -2.4148202100    2.0733323300    7.3871732000
C       -3.4658551400    1.2809777500    6.7972188200
C       -3.6542096300   -0.1323962000    7.3925137700
O       -4.2469163100    1.7472386600    5.9335370300
H       -2.4258141700    3.0610795200    6.8751149400
H       -1.3656468600    1.6376214200    7.2396397800
H       -2.6287579700    2.2865796300    8.4096913500
H       -2.7725854100   -0.6632552000    7.5403752500
H       -4.4117131400   -0.6903605300    6.8067975200
H       -4.1205315800   -0.0421976800    8.3273053400
C        0.4445691300    4.0926986300    4.4045243500
C        1.1511407100    5.1717620500    3.8474717300
N        1.8326936000    6.1131072600    3.3666730100
H       -0.5424589900    3.9821944800    3.8274235900
H        0.9972672700    3.1296096400    4.2648911700
H        0.1881375500    4.2724471700    5.4804444500
C        0.5790829900    2.0694318000    1.2597069900
C       -0.6151537700    1.6460671600    0.7553925700
C       -1.3907332200    2.5625729800   -0.0303244400
C       -0.8569178400    3.8749699800   -0.1616663700
C        0.3340745200    4.2561002000    0.3897938900
C        1.1161427700    3.3263402200    1.0031762300
H        1.1747250800    1.4493661100    1.8767133000
H       -0.9375719800    0.5781808100    0.8267979800
H       -2.3009943800    2.1956181700   -0.5191836200
H       -1.5064005700    4.6188416700   -0.7189497800
H        0.6428666300    5.2923112100    0.3190198100
H        2.0272565100    3.6165547600    1.3421254400
C        0.5946249800   -2.0264496200    5.1868653500
C        0.9419989400   -2.2111572600    3.8275685500
O        0.9560427500   -3.2908310300    3.2225384900
O        1.2658285900   -1.0909866700    3.1810708200
H       -0.4229588700   -1.8592132900    5.2570691300
H        1.1180109800   -1.1134933800    5.5942540400
H        0.9976839800   -2.8690018100    5.7772259900
H        1.6793303300   -1.3400253700    2.2884698100
36   
Iteration 1 Energy -786.75881355
C       -2.3858730100    2.1349044775    7.3676383847
C       -3.4769964714    1.2515191665    6.8401959503
C       -3.6981922427   -0.1477496019    7.3764048896
O       -4.2241385746    1.6608426356    5.9699650465
H       -2.3719903699    3.0981180037    6.8354508897
H       -1.4006195568    1.6621627084    7.2542517335
H       -2.5470677579    2.3391005630    8.4368973497
H       -2.7553333927   -0.6923380065    7.5035531391
H       -4.3964111024   -0.6895279071    6.7253163957
H       -4.1805687232   -0.0557644167    8.3642532884
C        0.4186200731    4.0928737876    4.3725689661
C        1.1748217091    5.1952983391    3.8166317238
N        1.8011501601    6.0484794509    3.3854517151
H       -0.5352727894    3.9685843845    3.8344559877
H        0.9711105539    3.1495697426    4.2641453644
H        0.1913065238    4.2644887491    5.4339871796
C        0.6796735365    1.9599764539    1.3184080477
C       -0.5552678162    1.6754190373    0.7415389545
C       -1.3084154149    2.6155227509    0.0142072114
C       -0.9567963343    3.9429970542   -0.2230974328
C        0.2793703210    4.2312547179    0.3607884319
C        1.0320225996    3.3019235765    1.0941320581
H        1.2869575567    1.2560727124    1.8947369198
H       -0.9631125148    0.6696791333    0.8420568140
H       -2.2465509899    2.2554565940   -0.4040308224
H       -1.5836581608    4.6465197483   -0.7750506048
H        0.6623758475    5.2480471929    0.2575984141
H        1.9867517192    3.6437032571    1.4924104305
C        0.6162102328   -2.0054311856    5.2090922285
C        1.0220035891   -2.1884363250    3.7826904058
O        0.9969871401   -3.2817812268    3.2474081300
O        1.3642813244   -1.0627500268    3.1247830477
H       -0.4672700572   -1.8475881661    5.2808272593
H        1.1082455095   -1.1272705217    5.6519838916
H        0.9130283234   -2.8850802860    5.7896106445
H        1.5561832226   -1.3217174340    2.2085373894
36   
Iteration 2 Energy -786.74843321
C       -2.3949468196    2.1092924593    7.3640558628
C       -3.5275055381    1.2688336068    6.7831800786
C       -3.6837439370   -0.1062694725    7.3730536878
O       -4.2588809918    1.6707132511    5.9144678539
H       -2.3282427675    3.0770312767    6.8612676346
H       -1.4513986177    1.5826477252    7.2713864209
H       -2.5560942416    2.2667073537    8.4545504267
H       -2.6937212588   -0.6113615989    7.4955285349
H       -4.3465378119   -0.6963185687    6.7373531989
H       -4.1447296305    0.0023565105    8.3909085389
C        0.3998485477    4.0874322786    4.3611443417
C        1.1812060212    5.2006850445    3.8083264477
N        1.7943230893    6.0372586143    3.3889996278
H       -0.5379775610    3.9650004703    3.8326498697
H        0.9576673204    3.1547507637    4.2657894441
H        0.1886539956    4.2591361075    5.4178808174
C        0.5681527776    2.1164440381    1.2140089400
C       -0.6462518777    1.6051980689    0.7120992165
C       -1.4165848173    2.5107352092    0.0049441273
C       -0.8505553639    3.7772968499   -0.0959428569
C        0.3680601753    4.3085023862    0.3930938449
C        1.1449884493    3.4034283687    1.1428037815
H        1.1635957725    1.3795435370    1.7755636208
H       -0.9788506306    0.5868260641    0.8705127342
H       -2.3772792859    2.2444291169   -0.4359133494
H       -1.4507487217    4.4799013707   -0.6420159989
H        0.6861533997    5.3438119376    0.2293966319
H        2.1356781668    3.6633544988    1.5909074234
C        0.6289354438   -1.9852591439    5.2209745575
C        1.0257726327   -2.2252376553    3.7656702415
O        1.0236862906   -3.2781249106    3.1811684810
O        1.3695708517   -1.0804456460    3.1321499407
H       -0.4785346420   -1.8284746011    5.2932979220
H        1.1174991053   -1.1057765861    5.6386010388
H        0.8822637227   -2.8663949069    5.8128489501
H        1.5280455040   -1.3141249032    2.2188557849
36   
Iteration 3 Energy -786.77473978
C       -2.3981458700    2.1023198118    7.3651951182
C       -3.5252512979    1.2789706213    6.7751734486
C       -3.6757666084   -0.1025596027    7.3772090621
O       -4.2567051287    1.6954898583    5.9000984287
H       -2.3345213761    3.0739343891    6.8641718526
H       -1.4424440448    1.5679592509    7.2694992382
H       -2.5665981339    2.2548185389    8.4459813129
H       -2.6993420610   -0.6015152342    7.5038562104
H       -4.3415948305   -0.7033522720    6.7499621339
H       -4.1275813728   -0.0018721992    8.3837074391
C        0.3960358603    4.0817925866    4.3668751497
C        1.1710422578    5.1892633512    3.8171266486
N        1.8113556323    6.0664031332    3.3772767828
H       -0.5495126616    3.9670792709    3.8241043110
H        0.9580896529    3.1452183833    4.2662430316
H        0.1817376923    4.2578839158    5.4287208760
C        0.6283015197    2.0354518724    1.2758702092
C       -0.5991957247    1.6314916953    0.7346986709
C       -1.3734813752    2.5527506501    0.0138398259
C       -0.8981644126    3.8581435534   -0.1507397496
C        0.3299033200    4.2700624802    0.3889625894
C        1.0950347171    3.3475899857    1.1172728822
H        1.2282367939    1.3165967078    1.8415620599
H       -0.9624862033    0.6134083291    0.8778205176
H       -2.3301816213    2.2492023356   -0.4149556035
H       -1.5029071409    4.5758960355   -0.7058316915
H        0.6857375314    5.2937506982    0.2577576611
H        2.0622598688    3.6485509789    1.5389407619
C        0.6274532279   -1.9846187394    5.2143855738
C        1.0148432489   -2.2249549124    3.7753274157
O        1.0145641169   -3.2833111485    3.1946805385
O        1.3584417301   -1.0791860223    3.1463030880
H       -0.4649675292   -1.8296661447    5.2717891130
H        1.1217951416   -1.0967554835    5.6258176662
H        0.8844090001   -2.8685209566    5.8068288511
H        1.5352504132   -1.3040591745    2.2192513847
36   
Iteration 4 Energy -786.77526223
C       -2.3727914702    2.1380907124    7.3585618101
C       -3.4771890490    1.2598912256    6.8094318561
C       -3.6942902972   -0.1339040227    7.3712472787
O       -4.2031598226    1.6789469667    5.9334065359
H       -2.3524164535    3.1006073846    6.8340025378
H       -1.3992966793    1.6316132862    7.2582232076
H       -2.5325258125    2.3081053608    8.4340832251
H       -2.7428688029   -0.6658894366    7.5006029924
H       -4.3714948453   -0.7045708323    6.7248521860
H       -4.1513377837   -0.0465219259    8.3693121483
C        0.3879712467    4.0827977527    4.3639247378
C        1.1656071186    5.1874132667    3.8199933532
N        1.7954704241    6.0514667035    3.3887401002
H       -0.5560587421    3.9778923766    3.8099397891
H        0.9506570090    3.1444782462    4.2614022233
H        0.1699441784    4.2608557241    5.4268359846
C        0.6381402003    2.0202089147    1.2931274858
C       -0.5914207206    1.6352426635    0.7538805677
C       -1.3547231662    2.5592560643    0.0316367401
C       -0.9046029654    3.8707572359   -0.1473666298
C        0.3250831221    4.2427804882    0.4016678901
C        1.1039212829    3.3244930724    1.1093626457
H        1.2304537622    1.3058902791    1.8644456320
H       -0.9598650734    0.6169123997    0.8950954633
H       -2.3114204190    2.2518130392   -0.3930568635
H       -1.5057059681    4.5926831969   -0.7060618905
H        0.6845005433    5.2647283873    0.2817612860
H        2.0629400408    3.6326798481    1.5222478768
C        0.6267900493   -1.9805914057    5.2070496575
C        1.0090177988   -2.2005592226    3.7701329733
O        0.9966353852   -3.2857376209    3.2426205753
O        1.3470293814   -1.0599169580    3.1235915380
H       -0.4606231075   -1.8317730465    5.2566555746
H        1.1207528058   -1.0922411115    5.6186973084
H        0.8816989161   -2.8724538619    5.7909513135
H        1.5514050431   -1.2955912164    2.2025751662
36   
Iteration 5 Energy -786.77633062
C       -2.3799201494    2.1190396121    7.3603458271
C       -3.4943411568    1.2700402308    6.7853004367
C       -3.6820675696   -0.1157397271    7.3715985370
O       -4.2201579300    1.6890218858    5.9075638699
H       -2.3411908150    3.0872634791    6.8493506830
H       -1.4142088290    1.5986754325    7.2616185701
H       -2.5459203060    2.2754750577    8.4376553926
H       -2.7202926785   -0.6313284859    7.5008652546
H       -4.3546863019   -0.7048212388    6.7383773259
H       -4.1313971846   -0.0207325716    8.3732076039
C        0.3855857119    4.0820509564    4.3633126458
C        1.1652250512    5.1869650740    3.8200491057
N        1.7950125633    6.0519579886    3.3884810702
H       -0.5570897656    3.9782126321    3.8088796338
H        0.9474650468    3.1438292087    4.2613048179
H        0.1671201559    4.2598636672    5.4256178746
C        0.6397351908    2.0164475953    1.2963173131
C       -0.5915668825    1.6357919914    0.7560427399
C       -1.3567788672    2.5564827530    0.0338645852
C       -0.8995776256    3.8660438828   -0.1412897332
C        0.3293647874    4.2501374899    0.4022563574
C        1.0999334402    3.3228448719    1.1081400229
H        1.2324213403    1.3017762203    1.8679280322
H       -0.9598428586    0.6182232718    0.8977740943
H       -2.3142341254    2.2513668937   -0.3911537056
H       -1.5010355799    4.5860356390   -0.6994321398
H        0.6889881590    5.2725466632    0.2816672805
H        2.0599357469    3.6293324139    1.5216512712
C        0.6269384585   -1.9762748957    5.2080182367
C        1.0064158278   -2.2125508889    3.7710465757
O        1.0042725701   -3.2826695357    3.2144747707
O        1.3422525299   -1.0678681771    3.1321083150
H       -0.4608454726   -1.8236224505    5.2581583205
H        1.1230656902   -1.0860422990    5.6121516676
H        0.8792115950   -2.8640397679    5.7981506372
H        1.5478465013   -1.2965730676    2.2106752496
36   
Iteration 6 Energy -786.77643870
C       -2.3754196593    2.1118599752    7.3582165968
C       -3.4928451581    1.2731010750    6.7721747257
C       -3.6738972906   -0.1076085106    7.3683036431
O       -4.2123548327    1.6897550466    5.8888867225
H       -2.3311516219    3.0826584930    6.8533038616
H       -1.4128358925    1.5877927064    7.2587290736
H       -2.5434938264    2.2609680958    8.4368742968
H       -2.7086990924   -0.6196307431    7.4966160251
H       -4.3455050973   -0.7019340126    6.7396105695
H       -4.1190285096   -0.0074632806    8.3722864633
C        0.3744384749    4.0794889888    4.3595056814
C        1.1600208801    5.1835555088    3.8198251901
N        1.7946203392    6.0534408842    3.3875865620
H       -0.5655444043    3.9786777029    3.8021375647
H        0.9336213597    3.1402851201    4.2592182112
H        0.1527787317    4.2565269220    5.4205734565
C        0.6407272936    2.0169824739    1.3014797858
C       -0.5938822653    1.6299813951    0.7695576023
C       -1.3588326875    2.5522192237    0.0489075407
C       -0.8945747333    3.8596280948   -0.1263159309
C        0.3385900793    4.2416179803    0.4120036457
C        1.1152354590    3.3201753984    1.1209442252
H        1.2309982038    1.2991261984    1.8723974324
H       -0.9611009131    0.6128638296    0.9154641908
H       -2.3189043926    2.2521492110   -0.3736467663
H       -1.4946339201    4.5813730134   -0.6825567607
H        0.6978245267    5.2637912345    0.2868258894
H        2.0772322647    3.6237921773    1.5356721234
C        0.6254407437   -1.9678592459    5.2036757707
C        1.0083449004   -2.2072573912    3.7666969296
O        1.0055654569   -3.2799687075    3.2160348688
O        1.3390134734   -1.0634155638    3.1218784632
H       -0.4630680895   -1.8112770731    5.2517711289
H        1.1228912162   -1.0794429471    5.6082294125
H        0.8708811358   -2.8566044991    5.7946208426
H        1.5418810279   -1.2958076197    2.2016683119
36   
Iteration 7 Energy -786.77663528
C       -2.3624431013    2.1152689419    7.3534688598
C       -3.4765093119    1.2706304107    6.7679232317
C       -3.6700423734   -0.1088234931    7.3627118764
O       -4.1873198426    1.6850756698    5.8776412538
H       -2.3237503437    3.0864035804    6.8485332548
H       -1.3980022329    1.5955711425    7.2517393313
H       -2.5295237555    2.2622226521    8.4324571770
H       -2.7083345383   -0.6276329791    7.4906030789
H       -4.3444061536   -0.6987219790    6.7326685553
H       -4.1134331892   -0.0067128742    8.3670761241
C        0.3592000027    4.0773598330    4.3540367978
C        1.1522453544    5.1794608249    3.8202318276
N        1.7895181261    6.0492593783    3.3909406300
H       -0.5776075985    3.9816992663    3.7907842481
H        0.9153002939    3.1363230177    4.2554104179
H        0.1325923856    4.2538557363    5.4140123042
C        0.6475256773    2.0055438247    1.3171557028
C       -0.5916369179    1.6246606274    0.7908634543
C       -1.3565473566    2.5480350858    0.0718108096
C       -0.8840893432    3.8528606040   -0.1043901661
C        0.3517495578    4.2406159396    0.4231578111
C        1.1188802474    3.3088124508    1.1290384797
H        1.2378436826    1.2874120780    1.8876952124
H       -0.9611750092    0.6089722047    0.9400881067
H       -2.3201442487    2.2534682722   -0.3467995182
H       -1.4847897317    4.5744476176   -0.6596777783
H        0.7145502712    5.2614113659    0.2954377752
H        2.0826912846    3.6085205976    1.5417143223
C        0.6228928291   -1.9553542137    5.1970348906
C        1.0060539686   -2.2022910129    3.7612245911
O        1.0080664111   -3.2763355570    3.2136510855
O        1.3314637214   -1.0593005881    3.1110963991
H       -0.4649909686   -1.7930405334    5.2421305174
H        1.1236705933   -1.0679820168    5.5993031421
H        0.8604635862   -2.8444443126    5.7904662134
H        1.5362864375   -1.2945947925    2.1921453762
36   
Iteration 8 Energy -786.77698019
C       -2.3362685910    2.1165283945    7.3433856756
C       -3.4447617150    1.2687691908    6.7502238636
C       -3.6564959410   -0.1060515253    7.3504167875
O       -4.1382643887    1.6796409058    5.8450445939
H       -2.3030955702    3.0901085566    6.8425777712
H       -1.3692073195    1.6016426056    7.2375962256
H       -2.5036033659    2.2557101007    8.4227797977
H       -2.7005326718   -0.6346055232    7.4781860471
H       -4.3361363497   -0.6917990477    6.7219688564
H       -4.0946749708    0.0022371221    8.3554278269
C        0.3255062615    4.0738908942    4.3419153959
C        1.1342281586    5.1710493801    3.8216431448
N        1.7750492769    6.0356650335    3.4017970311
H       -0.6045355474    3.9894946649    3.7649530460
H        0.8750525007    3.1284679723    4.2465383953
H        0.0873734995    4.2494849167    5.3997443776
C        0.6649211743    1.9842680468    1.3530572701
C       -0.5834133023    1.6187222564    0.8380658920
C       -1.3491737269    2.5439882756    0.1231946705
C       -0.8717027807    3.8453142790   -0.0648125756
C        0.3726419490    4.2179270598    0.4511933487
C        1.1402410627    3.2830154518    1.1516169289
H        1.2523939144    1.2634193132    1.9218989922
H       -0.9595082622    0.6063944210    0.9943879583
H       -2.3195853114    2.2555244216   -0.2836202560
H       -1.4709886323    4.5703339917   -0.6179010303
H        0.7431397625    5.2350352170    0.3187914590
H        2.1082413639    3.5787507529    1.5544913748
C        0.6162974189   -1.9275592858    5.1817947389
C        0.9979395889   -2.1940480347    3.7496131691
O        1.0137122511   -3.2689186454    3.2043809199
O        1.3144445782   -1.0534068333    3.0899919618
H       -0.4692205092   -1.7516863157    5.2204919954
H        1.1256430122   -1.0413778927    5.5764548679
H        0.8388702735   -2.8151085268    5.7831513269
H        1.5248406203   -1.2937722103    2.1731987086
36   
Iteration 9 Energy -786.77743701
C       -2.3011438786    2.1127444550    7.3289955208
C       -3.4038066059    1.2690271755    6.7184244856
C       -3.6321510207   -0.0973204761    7.3321883185
O       -4.0742450963    1.6742537259    5.7926361002
H       -2.2678420536    3.0911941798    6.8378743651
H       -1.3324654464    1.6005346681    7.2187729988
H       -2.4710459251    2.2391580138    8.4091159079
H       -2.6814401690   -0.6352064503    7.4604823287
H       -4.3188319283   -0.6811686826    6.7097562389
H       -4.0633679003    0.0225060804    8.3383016644
C        0.2760793653    4.0691167400    4.3256574137
C        1.1065601598    5.1588941079    3.8248674865
N        1.7574510238    6.0190404996    3.4178866978
H       -0.6439765732    3.9989124890    3.7302430219
H        0.8156793488    3.1173964742    4.2350939467
H        0.0205944754    4.2431112271    5.3798718062
C        0.6852535006    1.9590856263    1.3999144971
C       -0.5741617883    1.6030055790    0.9063698635
C       -1.3356147229    2.5368545916    0.1988988971
C       -0.8500620608    3.8328482585   -0.0066246537
C        0.4052344936    4.1944102550    0.4885925687
C        1.1693545134    3.2511941305    1.1810687348
H        1.2728351060    1.2366719355    1.9655446080
H       -0.9597213492    0.5958667135    1.0740506745
H       -2.3155902441    2.2583129810   -0.1913326467
H       -1.4507719807    4.5603946370   -0.5552898372
H        0.7856272118    5.2065267572    0.3473653752
H        2.1457015588    3.5375882454    1.5689295527
C        0.6049337495   -1.8913652591    5.1589102559
C        0.9904484845   -2.1741453118    3.7316379352
O        1.0152602668   -3.2619856599    3.2133871525
O        1.2961462141   -1.0418825304    3.0511272758
H       -0.4774408553   -1.6963389732    5.1885903548
H        1.1257296639   -1.0090315333    5.5475463141
H        0.8090468986   -2.7770085157    5.7695733714
H        1.5088392412   -1.2962225381    2.1383649359
36   
Iteration 10 Energy -786.77818479
C       -2.2484914304    2.1109109052    7.3068810322
C       -3.3412571179    1.2674858226    6.6780640412
C       -3.5975809957   -0.0884737707    7.3040963263
O       -3.9801122061    1.6637175505    5.7252763385
H       -2.2144296250    3.0943831357    6.8258846799
H       -1.2770801008    1.6037096863    7.1922700300
H       -2.4214124754    2.2248270338    8.3875866599
H       -2.6557304412   -0.6420799704    7.4348030813
H       -4.2946798114   -0.6651697004    6.6867152425
H       -4.0239525040    0.0464993702    8.3103211288
C        0.2037563909    4.0628507676    4.3037255758
C        1.0642542065    5.1415002743    3.8312741920
N        1.7353852344    5.9975882265    3.4430691426
H       -0.7012844036    4.0105512164    3.6834246000
H        0.7286755722    3.1024089747    4.2202535018
H       -0.0774798709    4.2345109808    5.3517651030
C        0.7176994373    1.9321076836    1.4632639886
C       -0.5579443803    1.5907956304    1.0015629522
C       -1.3254456184    2.5264330616    0.3030825903
C       -0.8218753868    3.8117605413    0.0754405189
C        0.4499290295    4.1561336287    0.5402835653
C        1.2216388899    3.2125965439    1.2239032595
H        1.3049950213    1.2054869709    2.0228478081
H       -0.9544551567    0.5914897224    1.1892249364
H       -2.3183985118    2.2582689681   -0.0610221218
H       -1.4233377619    4.5451996980   -0.4645245474
H        0.8400497805    5.1619375728    0.3824754455
H        2.2108765546    3.4875674144    1.5878772832
C        0.5865673707   -1.8409870564    5.1266124903
C        0.9792474776   -2.1526051777    3.7079563482
O        1.0165627273   -3.2552188774    3.2223946668
O        1.2720667144   -1.0348284111    2.9986359423
H       -0.4907187520   -1.6168071954    5.1442047196
H        1.1246105997   -0.9637679530    5.5043697774
H        0.7676531760   -2.7192821579    5.7545412747
H        1.4853594878   -1.3091504089    2.0916675234
36   
Iteration 11 Energy -786.77907555
C       -2.1709235924    2.1089984479    7.2733186464
C       -3.2489317276    1.2644819917    6.6230256884
C       -3.5456746861   -0.0768341154    7.2608576176
O       -3.8431701045    1.6466827313    5.6360194679
H       -2.1339556864    3.0977928492    6.8035798470
H       -1.1962075124    1.6085735406    7.1564835196
H       -2.3495481826    2.2095684073    8.3542751683
H       -2.6175597651   -0.6532648983    7.3976078767
H       -4.2562755943   -0.6403263936    6.6469152558
H       -3.9703041016    0.0789053922    8.2654482731
C        0.0975906085    4.0559552469    4.2744223271
C        0.9991824198    5.1179086305    3.8443171968
N        1.7055966398    5.9662629043    3.4877504748
H       -0.7841428966    4.0261928709    3.6203858205
H        0.6020400721    3.0842488905    4.2018415959
H       -0.2212534154    4.2250009536    5.3116600527
C        0.7649104001    1.9066501638    1.5427225362
C       -0.5312520681    1.5682478661    1.1400461924
C       -1.2984575660    2.5162670147    0.4566823240
C       -0.7841079820    3.7897399246    0.1881561982
C        0.5106737189    4.1166049000    0.6012256912
C        1.2924565686    3.1717550598    1.2718066235
H        1.3605117237    1.1799388819    2.0920499009
H       -0.9407792548    0.5806901775    1.3602292206
H       -2.3087532112    2.2617712469    0.1332703333
H       -1.3934564157    4.5262899413   -0.3382575980
H        0.9113269749    5.1133953372    0.4157665420
H        2.2997562898    3.4308696167    1.5999544389
C        0.5576634971   -1.7721878058    5.0829438646
C        0.9597702004   -2.1395872566    3.6805779521
O        1.0159710575   -3.2574126823    3.2322253590
O        1.2380899504   -1.0471860241    2.9306534065
H       -0.5104402849   -1.5048682939    5.0818097966
H        1.1220988985   -0.9016856039    5.4392138448
H        0.7077159597   -2.6326813679    5.7418540912
H        1.4523990046   -1.3498930501    2.0332865765
36   
Iteration 12 Energy -786.78039642
C       -2.0633156598    2.1012649260    7.2267664981
C       -3.1205979871    1.2615427092    6.5400012055
C       -3.4692882334   -0.0553832381    7.1989081066
O       -3.6487254122    1.6226630706    5.5087797446
H       -2.0231760967    3.0982473288    6.7754242706
H       -1.0840823779    1.6099175004    7.1088158071
H       -2.2531001248    2.1787398149    8.3073518633
H       -2.5609091924   -0.6614199306    7.3444628949
H       -4.1969504130   -0.6027681506    6.5908074930
H       -3.8878221539    0.1296571851    8.2012652099
C       -0.0513172114    4.0479692538    4.2318923849
C        0.9051316890    5.0848405813    3.8653063864
N        1.6561049856    5.9160723219    3.5593090828
H       -0.8964182776    4.0505415677    3.5310008587
H        0.4248984670    3.0617371519    4.1740056112
H       -0.4222477618    4.2154982355    5.2513838943
C        0.8454757245    1.8698720628    1.6573437697
C       -0.4793804942    1.5611650739    1.3310300146
C       -1.2699972447    2.5057544706    0.6686858165
C       -0.7337155740    3.7575859752    0.3473067347
C        0.5893698734    4.0614325770    0.6825820709
C        1.3872049467    3.1160807528    1.3330836240
H        1.4502337169    1.1402340908    2.1911288561
H       -0.8993886613    0.5903160501    1.5989398959
H       -2.3020692425    2.2676691833    0.4068717420
H       -1.3507464547    4.4999693967   -0.1607880605
H        0.9998267139    5.0455319362    0.4562393389
H        2.4147752332    3.3593147516    1.6080415645
C        0.5173425797   -1.6787826772    5.0217875931
C        0.9304581994   -2.1212631084    3.6448861878
O        1.0084057259   -3.2645334697    3.2698404423
O        1.1883943103   -1.0716338828    2.8317460468
H       -0.5349014889   -1.3560690956    4.9886363562
H        1.1171901877   -0.8205853789    5.3504117777
H        0.6197846630   -2.5140494683    5.7201368730
H        1.4082366156   -1.4188152236    1.9525085960
36   
Iteration 13 Energy -786.78187233
C       -1.9035037504    2.0902615304    7.1616983488
C       -2.9278521274    1.2544384733    6.4257095602
C       -3.3555254266   -0.0296937667    7.1017368212
O       -3.3623639064    1.5880748293    5.3426264835
H       -1.8589350916    3.0961749156    6.7323444628
H       -0.9159011955    1.6136309505    7.0518764963
H       -2.1154849746    2.1429101263    8.2390960149
H       -2.4799934111   -0.6781672590    7.2667472634
H       -4.1005787837   -0.5495318728    6.4907820276
H       -3.7763751264    0.1908908876    8.0960254298
C       -0.2639448365    4.0455616650    4.1734514379
C        0.7618700027    5.0448025791    3.9072560652
N        1.5783186649    5.8421191171    3.6900139942
H       -1.0498401921    4.0891248181    3.4085623066
H        0.1735425960    3.0410528616    4.1374679207
H       -0.7112786774    4.2137852494    5.1606315325
C        0.9753787500    1.8546027742    1.7966080534
C       -0.3792848576    1.5724967285    1.5931495815
C       -1.2132361650    2.5081492277    0.9718327309
C       -0.6735638351    3.7312417539    0.5601104225
C        0.6800595377    4.0160102442    0.7699478080
C        1.5114134320    3.0782127553    1.3877455290
H        1.6071791436    1.1255269569    2.2979124375
H       -0.7937087941    0.6223994484    1.9314726073
H       -2.2691473807    2.2850353749    0.8116423759
H       -1.3132131613    4.4721235218    0.0794515324
H        1.0875582133    4.9828600545    0.4752484556
H        2.5624555280    3.3073358054    1.5731082905
C        0.4539028122   -1.5620955295    4.9406477578
C        0.8758486158   -2.1352016194    3.6151616943
O        0.9781642983   -3.3096776960    3.3610845624
O        1.1150764826   -1.1685253667    2.7041659097
H       -0.5690613720   -1.1655391532    4.8517227072
H        1.1063648377   -0.7237457802    5.2191304500
H        0.4887114517   -2.3430172191    5.7045918916
H        1.3465184525   -1.5875804668    1.8607780412
36   
Iteration 14 Energy -786.78256250
C       -1.8112434383    2.0793772746    7.1388384460
C       -2.8141064930    1.2472853962    6.3696350721
C       -3.2910510773   -0.0228717609    7.0396990598
O       -3.1932300897    1.5740813437    5.2636960538
H       -1.7654667658    3.0903920380    6.7234303885
H       -0.8175177801    1.6129702080    7.0411390828
H       -2.0447908203    2.1183124736    8.2117948962
H       -2.4361118539   -0.6931658587    7.2221190900
H       -4.0352570205   -0.5261812784    6.4138756680
H       -3.7250998981    0.2093971096    8.0249491730
C       -0.3698932345    4.0645498826    4.1602590007
C        0.6882253695    5.0422427748    3.9485733570
N        1.5367515612    5.8139877250    3.7843380325
H       -1.1195575217    4.1281563448    3.3631198196
H        0.0461739171    3.0505217170    4.1376353798
H       -0.8588664280    4.2354986653    5.1257807853
C        1.0461843059    1.8558909975    1.8363385937
C       -0.3170803534    1.5779506476    1.6943535130
C       -1.1751407507    2.5075401235    1.0988816391
C       -0.6543439825    3.7220249721    0.6408347451
C        0.7074340255    4.0072854456    0.7853447105
C        1.5583299571    3.0759366161    1.3860106643
H        1.6996674396    1.1266422415    2.3123150131
H       -0.7160050990    0.6346895687    2.0653823038
H       -2.2392969764    2.2891063428    1.0004884142
H       -1.3139870453    4.4575349297    0.1788118440
H        1.1037236753    4.9672458616    0.4542129978
H        2.6158461807    3.3074682686    1.5209245600
C        0.4155612612   -1.5090534394    4.9051144078
C        0.8379106354   -2.1674461435    3.6187164709
O        0.9490978671   -3.3550347559    3.4403060419
O        1.0721065297   -1.2592289988    2.6484321582
H       -0.5888474831   -1.0787212950    4.7780106239
H        1.0971270249   -0.6835772649    5.1504710405
H        0.4082313710   -2.2504195758    5.7086324553
H        1.3130454150   -1.7286165311    1.8349623341
36   
Iteration 15 Energy -786.78328815
C       -1.7542365666    2.0608360668    7.1519026156
C       -2.7406145911    1.2399598854    6.3483926136
C       -3.2496861440   -0.0318542505    6.9913932561