24   
Iteration 0 Energy -1261.95769742
C       -2.8665866400   -2.2776833000   -5.9601173800
C       -2.8762855100   -1.0901909300   -5.0646439000
Cl      -2.8428897400   -1.3483315000   -3.3117065900
H       -3.8326549100   -2.7529869500   -6.0782127800
H       -2.5335788300   -2.0326405000   -7.0263042900
H       -2.0905894800   -3.0057888500   -5.5694294400
H       -3.7091064000   -0.4226418000   -5.3477936200
H       -2.0081138200   -0.4433479800   -5.3696766300
C       -6.1738834800   -3.2254372100   -3.8190041900
C       -7.1529179100   -4.2356815800   -4.4002725000
S       -8.7667007900   -3.4601021300   -4.6710778600
H       -5.9477997300   -2.3718967900   -4.4716989000
H       -5.2906361100   -3.7329407200   -3.4961434800
H       -6.6061764200   -2.7619038100   -2.9834634200
H       -7.3682156100   -4.9445992000   -3.6423074200
H       -6.8684158800   -4.8338375500   -5.2686501900
H       -8.3273106100   -2.3786774100   -5.0509835600
C       -7.2515679800    1.2521781500   -2.2442532000
N       -7.9234963800    0.0469607900   -1.7548580600
O       -8.1424600000   -0.8600235400   -2.5275745800
O       -8.1007195900   -0.0371666400   -0.5430012200
H       -6.9940682800    1.2963828600   -3.3049088000
H       -6.2471810700    1.2101287400   -1.7815819200
H       -7.8248254200    2.1655578200   -1.9280415000
24   
Iteration 1 Energy -1261.98844989
C       -2.8551673652   -2.3021044766   -5.9582079858
C       -2.8689148465   -1.0436743479   -5.1110012551
Cl      -2.8984113150   -1.3611438064   -3.3572902770
H       -3.8342444560   -2.7949693581   -6.0191935985
H       -2.5563009817   -2.0386978803   -6.9843614959
H       -2.1142611192   -3.0299231776   -5.5965111964
H       -3.7377915351   -0.4081306542   -5.3430174801
H       -1.9943005603   -0.4074867457   -5.3212711886
C       -6.1618059916   -3.2468609674   -3.8066663152
C       -7.1637575599   -4.2473932947   -4.3720025641
S       -8.8227242854   -3.5239303575   -4.7433380550
H       -5.9493966328   -2.4341078716   -4.5171976949
H       -5.2188013938   -3.7386908255   -3.5324262292
H       -6.5840969733   -2.7744214168   -2.9109170743
H       -7.3592233158   -5.0215853865   -3.6152450772
H       -6.7853575659   -4.7611190669   -5.2651656403
H       -8.4113444442   -2.3014241160   -5.1368515439
C       -7.1931633140    1.2654625062   -2.2153274320
N       -7.8517243961    0.0341312843   -1.7320438532
O       -8.1553151793   -0.7858317628   -2.5808005413
O       -8.1566417193    0.0078291815   -0.5469507390
H       -7.0915465118    1.2073281771   -3.3037733250
H       -6.1937776269    1.3118781187   -1.7586424645
H       -7.7904379955    2.1254187361   -1.9042533403
24   
Iteration 2 Energy -1261.98853925
C       -2.8540744903   -2.3042427354   -5.9581151740
C       -2.8751816803   -1.0287550550   -5.1305670031
Cl      -2.9441860795   -1.3663871177   -3.3607442631
H       -3.8371108408   -2.7966531335   -5.9699300476
H       -2.5810876986   -2.0462881416   -6.9868579443
H       -2.1162470050   -3.0190707459   -5.5855687089
H       -3.7586042688   -0.4179111633   -5.3569052585
H       -1.9874923240   -0.4126395036   -5.3017299878
C       -6.1725564632   -3.2483319751   -3.8046066529
C       -7.1608693989   -4.2599208103   -4.3701652610
S       -8.8253462754   -3.5643610468   -4.7715342657
H       -5.9641569471   -2.4535639191   -4.5356130843
H       -5.2131443816   -3.7328312413   -3.5561777074
H       -6.5754985722   -2.7726065431   -2.8924225325
H       -7.3611904924   -5.0575269200   -3.6313720858
H       -6.7498273325   -4.7318395103   -5.2735254989
H       -8.3972566114   -2.3179174556   -5.1447677628
C       -7.1730162834    1.2950946368   -2.2176580932
N       -7.9182431139    0.0819351441   -1.7695963327
O       -8.1523235170   -0.8406759377   -2.5338745113
O       -8.0997854330    0.0031762537   -0.5654742062
H       -7.0834454087    1.2319600548   -3.3047400724
H       -6.1955038256    1.3103305566   -1.7227863718
H       -7.7560356256    2.1589925153   -1.9005300648
24   
Iteration 3 Energy -1261.99046925
C       -2.8561235602   -2.3031624417   -5.9581337814
C       -2.8786675262   -1.0295435637   -5.1316664791
Cl      -2.9497560658   -1.3641527046   -3.3547685644
H       -3.8383310532   -2.7939856952   -5.9655091465
H       -2.5845473882   -2.0491002889   -6.9927350446
H       -2.1142726065   -3.0150215783   -5.5786569214
H       -3.7618842459   -0.4205034912   -5.3594452142
H       -1.9874575603   -0.4159580457   -5.3013113137
C       -6.1756632248   -3.2481097818   -3.8049854720
C       -7.1586192958   -4.2623702305   -4.3727286211
S       -8.8202861984   -3.5668089814   -4.7721182085
H       -5.9671000291   -2.4524439282   -4.5345512136
H       -5.2184016291   -3.7319360866   -3.5575903486
H       -6.5746613393   -2.7732869961   -2.8961512366
H       -7.3595760990   -5.0587889255   -3.6388910775
H       -6.7481841337   -4.7339466992   -5.2760950058
H       -8.3907751388   -2.3283766909   -5.1402800567
C       -7.1767664009    1.2890651724   -2.2221064584
N       -7.9140996797    0.0839615395   -1.7373558610
O       -8.1197395808   -0.7896740337   -2.5638291985
O       -8.1146414923   -0.0079974965   -0.5351348493
H       -7.0930976033    1.2163844635   -3.3090826849
H       -6.1973298277    1.2973899190   -1.7333780752
H       -7.7528722569    2.1645824328   -1.9106688210
24   
Iteration 4 Energy -1261.98993321
C       -2.8642750108   -2.3022802453   -5.9538413725
C       -2.8914640702   -1.0306039279   -5.1323604680
Cl      -2.9746297377   -1.3526110590   -3.3437045680
H       -3.8408620581   -2.7981489402   -5.9489256212
H       -2.6028438528   -2.0595585623   -7.0015217055
H       -2.1076945309   -3.0022021115   -5.5636848405
H       -3.7687227979   -0.4181673260   -5.3690191501
H       -1.9899960459   -0.4245573669   -5.2945889020
C       -6.1798087286   -3.2499424953   -3.8073910929
C       -7.1492203298   -4.2696869134   -4.3847646316
S       -8.8082193692   -3.5757610441   -4.7743734873
H       -5.9710193225   -2.4471625972   -4.5285726218
H       -5.2270006909   -3.7311816540   -3.5587761512
H       -6.5769375075   -2.7813601003   -2.9057358706
H       -7.3488071006   -5.0637641793   -3.6598627530
H       -6.7419427766   -4.7432940188   -5.2875292877
H       -8.3857416044   -2.3540695510   -5.1362664339
C       -7.1656376934    1.2908592627   -2.2248999554
N       -7.8301763935    0.0482582449   -1.7223799973
O       -8.1632173492   -0.7734560736   -2.5597656853
O       -8.1460448000    0.0228078271   -0.5424780898
H       -7.0799561653    1.2410139793   -3.3116472309
H       -6.1823259518    1.3104334450   -1.7449065328
H       -7.7595311363    2.1576959473   -1.8969394118
24   
Iteration 5 Energy -1261.99209145
C       -2.8662385204   -2.3052980754   -5.9491793989
C       -2.8952060510   -1.0255753117   -5.1357374229
Cl      -2.9899161295   -1.3486522131   -3.3490196454
H       -3.8416736915   -2.8070948906   -5.9367368429
H       -2.6120635239   -2.0633826053   -6.9930939252
H       -2.1097268293   -3.0013603596   -5.5635235365
H       -3.7723309052   -0.4127818071   -5.3729205824
H       -1.9931678669   -0.4218882094   -5.2878832512
C       -6.1778550391   -3.2536468074   -3.8081219052
C       -7.1465325903   -4.2733476620   -4.3879573964
S       -8.8115953487   -3.5871939679   -4.7825383747
H       -5.9710268234   -2.4510232120   -4.5305533650
H       -5.2192669892   -3.7314920459   -3.5613564064
H       -6.5795071928   -2.7877411232   -2.9009337519
H       -7.3431150904   -5.0741070376   -3.6627748294
H       -6.7314388166   -4.7387888495   -5.2920527683
H       -8.3965507981   -2.3528697720   -5.1453756085
C       -7.1588910128    1.2985133436   -2.2217623217
N       -7.8626679339    0.0702052014   -1.7377145340
O       -8.1570232246   -0.7890547759   -2.5526862468
O       -8.1232034638    0.0234347358   -0.5461103662
H       -7.0757167191    1.2427096839   -3.3086863127
H       -6.1763511859    1.3144267539   -1.7376551887
H       -7.7473645396    2.1619786815   -1.8934272276
24   
Iteration 6 Energy -1261.99243037
C       -2.8738566925   -2.3080103287   -5.9388118330
C       -2.9063772398   -1.0204864349   -5.1382146844
Cl      -3.0250380729   -1.3336896851   -3.3485918107
H       -3.8443997175   -2.8192328981   -5.9095083373
H       -2.6350704365   -2.0726077519   -6.9867741147
H       -2.1073842220   -2.9930387066   -5.5556269198
H       -3.7792981581   -0.4060971946   -5.3856722767
H       -1.9987081573   -0.4234600734   -5.2780798591
C       -6.1788814962   -3.2588170063   -3.8106323503
C       -7.1390289172   -4.2820795352   -4.3982472208
S       -8.8091430325   -3.6065911745   -4.7926922495
H       -5.9762255295   -2.4512279316   -4.5287984851
H       -5.2158121239   -3.7300390791   -3.5654676869
H       -6.5862128146   -2.8011069563   -2.9007254694
H       -7.3307296456   -5.0901408913   -3.6785772509
H       -6.7172093069   -4.7370338057   -5.3047348202
H       -8.4016324495   -2.3674285915   -5.1529026276
C       -7.1492024506    1.3041164175   -2.2202853064
N       -7.8656657384    0.0844045623   -1.7351594426
O       -8.1464699661   -0.7715431621   -2.5573154553
O       -8.1105655877    0.0268007069   -0.5421385356
H       -7.0702520213    1.2424800035   -3.3072367171
H       -6.1662018287    1.3146421162   -1.7370257165
H       -7.7313989680    2.1708323711   -1.8923110279
24   
Iteration 7 Energy -1261.99274522
C       -2.8878781388   -2.3115287605   -5.9194592326
C       -2.9265235532   -1.0127779558   -5.1396652903
Cl      -3.0813410810   -1.3028702686   -3.3454397898
H       -3.8498105838   -2.8366512109   -5.8645997792
H       -2.6721754462   -2.0889120710   -6.9755285017
H       -2.1041001028   -2.9784286881   -5.5389086277
H       -3.7908202075   -0.3955474246   -5.4084981217
H       -2.0104775122   -0.4256494912   -5.2651668554
C       -6.1821735092   -3.2671886291   -3.8144346346
C       -7.1263931270   -4.2965778930   -4.4166290000
S       -8.8039438285   -3.6377122145   -4.8074858747
H       -5.9872110372   -2.4492209061   -4.5228606430
H       -5.2134959490   -3.7276300951   -3.5705032852
H       -6.5992850308   -2.8243120435   -2.9015117139
H       -7.3094126514   -5.1154778767   -3.7068970772
H       -6.6961722934   -4.7358662505   -5.3269697382
H       -8.4098133140   -2.3932207393   -5.1639287007
C       -7.1319371474    1.3134182786   -2.2194938999
N       -7.8583552047    0.0990760973   -1.7354049564
O       -8.1384962745   -0.7545495528   -2.5598508463
O       -8.0914317158    0.0351091776   -0.5410550718
H       -7.0538464391    1.2535671151   -3.3066164274
H       -6.1484141617    1.3134972608   -1.7372761459
H       -7.7043861555    2.1858553259   -1.8887203933
24   
Iteration 8 Energy -1261.99315377
C       -2.9092131065   -2.3155999574   -5.8880908742
C       -2.9566686163   -1.0006389202   -5.1396855617
Cl      -3.1572393766   -1.2506113417   -3.3410759616
H       -3.8593200660   -2.8571985488   -5.8012345514
H       -2.7210168530   -2.1138100706   -6.9540255454
H       -2.1039596025   -2.9580548168   -5.5095001083
H       -3.8086895224   -0.3818565245   -5.4417208719
H       -2.0318637974   -0.4245574709   -5.2518661529
C       -6.1888712132   -3.2795472609   -3.8189180341
C       -7.1093416231   -4.3166978997   -4.4436294675
S       -8.7972542791   -3.6820957273   -4.8278549480
H       -6.0060837178   -2.4453658827   -4.5113193557
H       -5.2130776866   -3.7245391314   -3.5757478224
H       -6.6207130658   -2.8597234963   -2.9022874227
H       -7.2794206889   -5.1508429582   -3.7490033564
H       -6.6679867491   -4.7330413907   -5.3594527479
H       -8.4226296685   -2.4310834673   -5.1784728801
C       -7.1028280851    1.3248331269   -2.2191298664
N       -7.8384643414    0.1147291362   -1.7388684160
O       -8.1300707049   -0.7329879592   -2.5654910172
O       -8.0663866900    0.0471228875   -0.5436894546
H       -7.0272026966    1.2708084980   -3.3067568365
H       -6.1174235881    1.3125989828   -1.7405302462
H       -7.6652693659    2.2017649042   -1.8823982031
24   
Iteration 9 Energy -1261.99365390
C       -2.9399951925   -2.3190507848   -5.8397885108
C       -3.0001566065   -0.9806048850   -5.1375800687
Cl      -3.2549810878   -1.1662463465   -3.3371901668
H       -3.8756535300   -2.8772934078   -5.7144242233
H       -2.7805352188   -2.1503471057   -6.9166116765
H       -2.1115796364   -2.9307120447   -5.4592874785
H       -3.8365718758   -0.3655451346   -5.4873177842
H       -2.0675896828   -0.4152091253   -5.2409191226
C       -6.2017320852   -3.2970807159   -3.8221498047
C       -7.0884285804   -4.3427809017   -4.4801847378
S       -8.7902847374   -3.7431710083   -4.8557092676
H       -6.0370662894   -2.4401704215   -4.4906310273
H       -5.2168459728   -3.7211750766   -3.5797689704
H       -6.6535768430   -2.9114014529   -2.9004679693
H       -7.2399556487   -5.1984909757   -3.8083522644
H       -6.6317087118   -4.7246403402   -5.4035262961
H       -8.4438613633   -2.4828991833   -5.1980053293
C       -7.0570054703    1.3367027488   -2.2210444593
N       -7.8027983581    0.1304753278   -1.7481714842
O       -8.1161359794   -0.7059135581   -2.5786941172
O       -8.0314928012    0.0594587718   -0.5526119067
H       -6.9858632242    1.2930165644   -3.3094671834
H       -6.0688717340    1.3083624934   -1.7487165600
H       -7.6077646383    2.2174032539   -1.8741158060
24   
Iteration 10 Energy -1261.99422604
C       -2.9833735627   -2.3193371840   -5.7684992667
C       -3.0621671913   -0.9482720107   -5.1343324237
Cl      -3.3824237787   -1.0399887540   -3.3386240729
H       -3.9022238920   -2.8919625310   -5.5958955558
H       -2.8514654423   -2.2016708291   -6.8559816500
H       -2.1318571317   -2.8919165795   -5.3778267070
H       -3.8794853077   -0.3475526703   -5.5486232795
H       -2.1232019661   -0.3925325858   -5.2335062845
C       -6.2243328078   -3.3216018621   -3.8210452597
C       -7.0637320565   -4.3748476343   -4.5272504799
S       -8.7837018102   -3.8258336938   -4.8939295594
H       -6.0853798896   -2.4348180510   -4.4551265318
H       -5.2277378617   -3.7178095230   -3.5798415580
H       -6.7018162588   -2.9856247538   -2.8928535255
H       -7.1888729303   -5.2604687567   -3.8898246696
H       -6.5857813919   -4.7048287803   -5.4598875195
H       -8.4770219442   -2.5525883960   -5.2254243411
C       -6.9879601352    1.3469795941   -2.2276597256
N       -7.7491596125    0.1464125489   -1.7668806589
O       -8.0893326958   -0.6717056283   -2.6053503165
O       -7.9798428569    0.0683267984   -0.5713041302
H       -6.9239839942    1.3181128069   -3.3169781009
H       -5.9967833769    1.2959105048   -1.7638629338
H       -7.5227185756    2.2314185221   -1.8651128950
24   
Iteration 11 Energy -1261.99491997
C       -3.0438878428   -2.3113086138   -5.6664433463
C       -3.1507447840   -0.8991184045   -5.1313835010
Cl      -3.5516623228   -0.8618265092   -3.3533188508
H       -3.9442000445   -2.8929133247   -5.4381667224
H       -2.9327390785   -2.2695668985   -6.7617225337
H       -2.1714491907   -2.8331726681   -5.2513577532
H       -3.9445101181   -0.3306048421   -5.6289523194
H       -2.2075192576   -0.3502839661   -5.2304789259
C       -6.2622844081   -3.3564775625   -3.8106877680
C       -7.0347957815   -4.4125396437   -4.5858295346
S       -8.7763623940   -3.9353751078   -4.9471410908
H       -6.1591903977   -2.4317563118   -4.3949959300
H       -5.2515182276   -3.7151935967   -3.5692064249
H       -6.7725963719   -3.0926498949   -2.8765781763
H       -7.1221345699   -5.3372016075   -3.9995788435
H       -6.5287364503   -4.6665497638   -5.5274983879
H       -8.5252588235   -2.6457292208   -5.2643527108
C       -6.8863691446    1.3530410321   -2.2427374909
N       -7.6711622907    0.1611500259   -1.8005163259
O       -8.0425988273   -0.6303649264   -2.6514533556
O       -7.9027793253    0.0692909155   -0.6053730992
H       -6.8313712503    1.3457596321   -3.3327691370
H       -5.8924463553    1.2688888321   -1.7902108710
H       -7.3978536170    2.2416240795   -1.8571986178
24   
Iteration 12 Energy -1261.99566812
C       -3.1270534823   -2.2852379561   -5.5240640494
C       -3.2762254461   -0.8283852806   -5.1311247577
Cl      -3.7760376744   -0.6259165688   -3.3944792740
H       -4.0094774324   -2.8663201338   -5.2354646015
H       -3.0188777091   -2.3512108290   -6.6179999601
H       -2.2402354884   -2.7385877641   -5.0617512387
H       -4.0416248842   -0.3213716190   -5.7296446466
H       -2.3331404809   -0.2799092735   -5.2350762238
C       -6.3259092367   -3.4077822383   -3.7818801179
C       -7.0024262728   -4.4536076917   -4.6549543046
S       -8.7661308725   -4.0773321501   -5.0233827450
H       -6.2724489339   -2.4373845613   -4.2937669662
H       -5.2998583103   -3.7163427501   -3.5340066409
H       -6.8779490992   -3.2484532136   -2.8477359979
H       -7.0353425054   -5.4255927259   -4.1443124612
H       -6.4604478917   -4.5976388609   -5.6000253969
H       -8.5907579471   -2.7692499116   -5.3205502280
C       -6.7387036990    1.3508042500   -2.2718714012
N       -7.5573675522    0.1716821941   -1.8579500493
O       -7.9645988660   -0.5813332332   -2.7274774264
O       -7.7882471330    0.0556022260   -0.6642641198
H       -6.6937064108    1.3746061604   -3.3618192837
H       -5.7434354079    1.2202690279   -1.8345498505
H       -7.2177506124    2.2423161915   -1.8532161365
24   
Iteration 13 Energy -1261.99597465
C       -3.1707984189   -2.2582188156   -5.4457534246
C       -3.3495936959   -0.7833280968   -5.1370598839
Cl      -3.8837024915   -0.5021576630   -3.4248241318
H       -4.0516824563   -2.8341120067   -5.1430854773
H       -3.0356688326   -2.3856034083   -6.5305308484
H       -2.2907482211   -2.6707002137   -4.9354477711
H       -4.1106435805   -0.3221643905   -5.7770243332
H       -2.4133784048   -0.2259508928   -5.2540060576
C       -6.3793183890   -3.4411566235   -3.7438429630
C       -6.9930895199   -4.4692876763   -4.6822648239
S       -8.7637634351   -4.1518334141   -5.0710121521
H       -6.3518427210   -2.4459021943   -4.2077608668
H       -5.3478887370   -3.7229328577   -3.4851102741
H       -6.9579465149   -3.3496153079   -2.8166385110
H       -6.9939781832   -5.4673472200   -4.2230440851
H       -6.4273456419   -4.5414087030   -5.6216415150
H       -8.6312080207   -2.8344471098   -5.3528210254
C       -6.6476189524    1.3431512080   -2.2964352145
N       -7.4836011846    0.1678260607   -1.9061324022
O       -7.9025077555   -0.5603914785   -2.7910629065
O       -7.7114526975    0.0269301936   -0.7147387469
H       -6.6037487195    1.3886354440   -3.3854050176
H       -5.6538750358    1.1866963135   -1.8657848749
H       -7.1105969223    2.2317141156   -1.8554889969
24   
Iteration 14 Energy -1261.99655075
C       -3.1578623844   -2.2470593846   -5.4607123463
C       -3.3454871173   -0.7744125909   -5.1487763919
Cl      -3.8237045305   -0.5164536117   -3.4178520741
H       -4.0547991244   -2.8198430490   -5.2003181793
H       -2.9699763030   -2.3694554016   -6.5374296094
H       -2.3068682284   -2.6630559264   -4.9067143923
H       -4.1364605379   -0.3225496563   -5.7586246685
H       -2.4220222882   -0.2025779599   -5.2920067290
C       -6.4066730994   -3.4411838292   -3.7029594936
C       -7.0106035933   -4.4582155866   -4.6599836190
S       -8.7764588015   -4.1377649044   -5.0703104560
H       -6.3695453128   -2.4415006362   -4.1568449964
H       -5.3786342634   -3.7284592924   -3.4353360828
H       -6.9954059582   -3.3601895107   -2.7810333716
H       -7.0164197115   -5.4622948807   -4.2135696249
H       -6.4333610437   -4.5178393858   -5.5931238358
H       -8.6403850893   -2.8186307709   -5.3444828425
C       -6.6444480377    1.3352395464   -2.3070135603
N       -7.4731551820    0.1487263934   -1.9337964136
O       -7.8745075740   -0.5744639188   -2.8306161533
O       -7.6962187142   -0.0150304653   -0.7453297096
H       -6.5919643773    1.3887429772   -3.3950247590
H       -5.6535892699    1.1829316111   -1.8696345445
H       -7.1165642550    2.2149450576   -1.8599842823
24   
Iteration 15 Energy -1261.99689751
C       -3.1553841204   -2.2331521474   -5.4664529754
C       -3.3581004537   -0.7636052604   -5.1595730466
Cl      -3.7660790022   -0.5084553996   -3.4061919722
H       -4.0704743534   -2.8040540030   -5.2667703984
H       -2.8939092080   -2.3500642658   -6.5289258052
H       -2.3443204973   -2.6513324080   -4.8562644957
H       -4.1879291470   -0.3328552763   -5.7315577171
H       -2.4535646784   -0.1731789101   -5.3440142063
C       -6.4452072915   -3.4512373565   -3.6412690622
C       -7.0233755471   -4.4451269025   -4.6373720395
S       -8.7832507590   -4.1257863088   -5.0746471786
H       -6.4038131116   -2.4400144101   -4.0670740078
H       -5.4209253602   -3.7402355724   -3.3596014592
H       -7.0552999646   -3.3986915768   -2.7311332916
H       -7.0311194825   -5.4616766314   -4.2201148976
H       -6.4275149112   -4.4749470002   -5.5601897293
H       -8.6479357770   -2.8035473384   -5.3302950378
C       -6.6245141763    1.3282290033   -2.3240128002
N       -7.4453293408    0.1260123242   -1.9855565134
O       -7.8330079724   -0.5755595408   -2.9049722207
O       -7.6618733681   -0.0786215542   -0.8030951266
H       -6.5611624606    1.4042611304   -3.4102144114
H       -5.6363480249    1.1786120090   -1.8780982283
H       -7.1131273712    2.1924855612   -1.8640910190
24   
Iteration 16 Energy -1261.99701193
C       -3.1609034390   -2.2360679708   -5.4686111762
C       -3.3662287141   -0.7681287985   -5.1592995562
Cl      -3.7577395945   -0.5118915174   -3.3982950636
H       -4.0776409327   -2.8092779782   -5.2836634017
H       -2.8866554805   -2.3469823480   -6.5285845166
H       -2.3557520785   -2.6576827346   -4.8532147771
H       -4.2060167025   -0.3400473763   -5.7180914472
H       -2.4668248805   -0.1727074552   -5.3514731588
C       -6.4469340274   -3.4603109487   -3.6230174030
C       -7.0177054809   -4.4428989777   -4.6342482227
S       -8.7756081580   -4.1198012316   -5.0764242498
H       -6.4052205471   -2.4443282533   -4.0368922304
H       -5.4239857195   -3.7502731933   -3.3380336837
H       -7.0640591780   -3.4180228759   -2.7169332338
H       -7.0271663751   -5.4642869690   -4.2290931196
H       -6.4165016074   -4.4616008656   -5.5539515939
H       -8.6396483474   -2.7957637198   -5.3190250332
C       -6.6214237324    1.3357391732   -2.3262928027
N       -7.4398489148    0.1273371188   -2.0054639264
O       -7.8315213460   -0.5579450252   -2.9354565709
O       -7.6520480163   -0.0982615097   -0.8260576025
H       -6.5529217804    1.4247860792   -3.4112910231
H       -5.6354312050    1.1856445748   -1.8761847529
H       -7.1169773310    2.1934090293   -1.8611681978
24   
Iteration 17 Energy -1261.99753658
C       -3.2180852148   -2.2549610917   -5.4542873397
C       -3.4436145586   -0.7927597232   -5.1522316312
Cl      -3.7730655952   -0.5170386789   -3.3636823648
H       -4.1345966623   -2.8417504562   -5.3197161450
H       -2.8955802369   -2.3517719558   -6.5029233317
H       -2.4305916418   -2.6768456877   -4.8171576957
H       -4.3232000006   -0.3864889467   -5.6617089504
H       -2.5682834853   -0.1746680348   -5.3764238569
C       -6.4536674874   -3.5282573745   -3.5209847838
C       -6.9655905147   -4.4336360959   -4.6308878179
S       -8.7142778621   -4.1062382151   -5.1032283672
H       -6.4225347589   -2.4813567129   -3.8493644002
H       -5.4362068308   -3.8180930107   -3.2190728960
H       -7.1107789715   -3.5679717026   -2.6425143843
H       -6.9693012775   -5.4855136400   -4.3129254767
H       -6.3325089826   -4.3661970614   -5.5268505089
H       -8.5918463105   -2.7696650802   -5.2566237211
C       -6.5825407490    1.3882699122   -2.3397270079
N       -7.3929468782    0.1509108331   -2.1362343365
O       -7.8197249966   -0.4211159564   -3.1260859452
O       -7.5748080204   -0.2064482831   -0.9846305551
H       -6.4826338222    1.5612631968   -3.4123447705
H       -5.6112418532    1.2224424626   -1.8659500109
H       -7.1118790629    2.2049753634   -1.8377024167
24   
Iteration 18 Energy -1261.99811998
C       -3.3382719893   -2.2954419796   -5.4202633797
C       -3.6039742461   -0.8422010907   -5.1308335607
Cl      -3.8329022727   -0.5373336108   -3.3086014373
H       -4.2447920976   -2.9074263588   -5.3506340983
H       -2.9507245959   -2.3751487415   -6.4492670274
H       -2.5726241121   -2.7083566613   -4.7519471995
H       -4.5383893136   -0.4761669926   -5.5647237420
H       -2.7719256239   -0.1877086182   -5.4056971287
C       -6.4645252304   -3.6635718114   -3.3432370052
C       -6.8561361438   -4.3976276110   -4.6170154136
S       -8.5857677222   -4.0665807563   -5.1495907231
H       -6.4686377874   -2.5773223884   -3.5011769495
H       -5.4566939185   -3.9549844872   -3.0143731984
H       -7.1822018336   -3.8664700296   -2.5366431833
H       -6.8284003382   -5.4867245796   -4.4721666401
H       -6.1716943319   -4.1637644274   -5.4449340894
H       -8.5069594210   -2.7201536122   -5.1219916615
C       -6.5074652667    1.4785375713   -2.3638913369
N       -7.2945153934    0.2120681703   -2.3974292203
O       -7.7810730438   -0.1316177827   -3.4636923648
O       -7.4162720922   -0.3913038541   -1.3449565835
H       -6.3444123587    1.8116879150   -3.3903541044
H       -5.5692483709    1.2691922568   -1.8459848689
H       -7.0995113528    2.2082003484   -1.7991781245
24   
Iteration 19 Energy -1261.99872441
C       -3.3686239007   -2.3161101374   -5.4223077388
C       -3.6420906621   -0.8657866876   -5.1152942081
Cl      -3.8617427125   -0.5835905883   -3.2903306578
H       -4.2697236996   -2.9340489453   -5.3432649850
H       -2.9958889624   -2.3890874558   -6.4570233006
H       -2.5922089453   -2.7295694055   -4.7667124101
H       -4.5799832451   -0.5000277595   -5.5424502326
H       -2.8153126019   -0.2040590365   -5.3893877167
C       -6.4525548088   -3.6858679859   -3.3102982199
C       -6.8247670247   -4.3792115550   -4.6123926858
S       -8.5486929763   -4.0373396355   -5.1555819436
H       -6.4650093746   -2.5944725436   -3.4310503233
H       -5.4449213019   -3.9791908992   -2.9823901799
H       -7.1741491365   -3.9262979584   -2.5181267540
H       -6.7898030770   -5.4723384795   -4.5040829969
H       -6.1332570115   -4.1128628048   -5.4239809586
H       -8.4770046429   -2.6917995959   -5.0713086390
C       -6.5057900699    1.5054258555   -2.3646577630
N       -7.2715774379    0.2288088207   -2.4601850053
O       -7.7602268448   -0.0659363949   -3.5405183973
O       -7.3771724413   -0.4314762022   -1.4408985402
H       -6.3235120793    1.8760252495   -3.3750277888
H       -5.5777354610    1.2913154784   -1.8309156965
H       -7.1225095562    2.2071771447   -1.7908483257
24   
Iteration 20 Energy -1261.99924170
C       -3.5319577660   -2.4162011134   -5.4182205286
C       -3.8540240864   -0.9881914585   -5.0095440191
Cl      -4.1273466881   -0.8712555979   -3.2197649747
H       -4.3736086135   -3.0782242254   -5.1949274663
H       -3.3330564146   -2.4678324529   -6.4980695377
H       -2.6539165484   -2.7920514584   -4.8770459845
H       -4.7707369294   -0.6194044155   -5.4843860701
H       -3.0327920423   -0.3001258997   -5.2408349262
C       -6.3778956124   -3.7740924448   -3.1816473095
C       -6.6774887002   -4.2555850607   -4.5934645460
S       -8.3742109458   -3.8415707281   -5.1700520046
H       -6.4428187691   -2.6803716140   -3.1095943566
H       -5.3595083824   -4.0667942459   -2.8827276053
H       -7.0832306208   -4.2102141470   -2.4655027089
H       -6.6018271899   -5.3494674680   -4.6641831693
H       -5.9654987310   -3.8395139222   -5.3160062903
H       -8.3470255697   -2.5415902870   -4.7772651341
C       -6.5035918065    1.6127334792   -2.3697974069
N       -7.1056935256    0.3049437868   -2.7721761730
O       -7.5573300073    0.2139697395   -3.9055100863
O       -7.1224522205   -0.5817211861   -1.9386168293
H       -6.2365075301    2.1579595909   -3.2768739710
H       -5.6334072507    1.3906569129   -1.7479648408
H       -7.2621695586    2.1483982872   -1.7882468641
24   
Iteration 21 Energy -1262.00078584
C       -3.4166985948   -2.3710440444   -5.4538616665
C       -3.7166914180   -0.9412095234   -5.0402089487
Cl      -3.9839168393   -0.8225374115   -3.2534418744
H       -4.2685786083   -3.0204336683   -5.2331896925
H       -3.2195078584   -2.4173720437   -6.5347071390
H       -2.5450700260   -2.7625354287   -4.9137128860
H       -4.6255596732   -0.5570562683   -5.5191760664
H       -2.8835634242   -0.2672216850   -5.2690874316
C       -6.3924117128   -3.7041353337   -3.2541637324
C       -6.7843506569   -4.3030334850   -4.5970072216
S       -8.4928521500   -3.8807582998   -5.1331447677
H       -6.4142424393   -2.6074284846   -3.2835664963
H       -5.3700693693   -4.0090035722   -2.9807397041
H       -7.0742539540   -4.0394086125   -2.4637816705
H       -6.7534339107   -5.4006892624   -4.5646011220
H       -6.0973376154   -3.9872837093   -5.3901909856
H       -8.4030661091   -2.5510147642   -4.8787783590
C       -6.5510169325    1.5645500469   -2.3609983938
N       -7.1977222533    0.2401670094   -2.6105465130
O       -7.6085300576    0.0128483066   -3.7390632578
O       -7.2828203212   -0.5230864833   -1.6659165273
H       -6.3102226815    2.0139898990   -3.3259052015
H       -5.6586338215    1.3835154304   -1.7562361623
H       -7.2730942510    2.1683576895   -1.8003945397
24   
Iteration 22 Energy -1262.00073358
C       -3.4138060159   -2.3276664415   -5.4129754595
C       -3.7351702398   -0.8916984796   -5.0706323934
Cl      -3.9161175067   -0.6555432329   -3.2595124525
H       -4.2837857033   -2.9803597341   -5.2783412248
H       -3.1054617927   -2.3792215755   -6.4689507613
H       -2.5907415678   -2.7113426154   -4.7972271055
H       -4.6889623687   -0.5607779958   -5.4947206201
H       -2.9384158732   -0.2013631821   -5.3654350549
C       -6.4679795154   -3.7747431635   -3.1916746034
C       -6.8099169490   -4.3071477281   -4.5751022598