35   
Iteration 0 Energy -819.67906356
N       -2.8175619300   -3.0907228600    0.9098684200
C       -4.1381471800   -3.4381941000    1.1692163300
C       -4.7134550200   -3.2576978800    2.4010736300
C       -6.0713117700   -3.6996591700    2.6720315800
C       -6.7744596600   -4.2813928700    1.6381627900
C       -6.2231882200   -4.2431848700    0.4071084800
C       -4.8909662400   -3.9514082100    0.1946889700
H       -2.5832231700   -3.5373495200   -0.0087469200
H       -2.4804132600   -2.1532343000    1.1512357600
H       -4.1166418200   -2.6461961900    3.0630628400
H       -6.4618089800   -3.5959566300    3.6184408100
H       -7.8409975200   -4.6727522000    1.7356092300
H       -6.7543276000   -4.6800058500   -0.4030683700
H       -4.5273893500   -4.0755136600   -0.8159635700
N       -2.2566126000   -1.9225595600    4.2420392600
C       -1.4173753900   -3.0402067300    4.2495465800
C       -0.5396040100   -3.3500803100    3.2040372400
C        0.3485280900   -4.3579176100    3.3772702800
C        0.4366075400   -5.1043928300    4.5839734600
C       -0.5829485100   -4.8868253800    5.5353284400
C       -1.5025442300   -3.8522508800    5.3923764800
H       -2.6999796100   -1.6086767300    5.1305051400
H       -1.7570131400   -1.1803358200    3.7569547200
H       -0.2349451200   -2.6829126500    2.3881345300
H        1.1696416700   -4.5677431200    2.7087979900
H        1.1934034200   -5.8652742500    4.6362271800
H       -0.5424001800   -5.4032915300    6.5454221300
H       -2.1374033100   -3.5359285500    6.2314725500
C       -6.3477495300   -2.9225633800    7.5762670700
N       -4.9434183300   -2.6648843900    6.9197996300
O       -4.1565683500   -1.7212331900    7.3259714300
O       -4.7073515100   -3.4619730100    6.0073698200
H       -6.3662718000   -2.7545259600    8.6431139100
H       -6.6389482600   -3.9706171200    7.4248083300
H       -7.1595400000   -2.3886888600    7.0923803500
35   
Iteration 1 Energy -819.73195067
N       -2.8317274766   -3.0903402306    0.9383198049
C       -4.1786200361   -3.4586397872    1.1259787416
C       -4.7016859701   -3.2566358586    2.4159187130
C       -6.0175399853   -3.6789855393    2.6487215842
C       -6.7656343885   -4.2586025730    1.6215023555
C       -6.3120693466   -4.3247753387    0.3057312880
C       -4.9660662895   -4.0017143820    0.1044908456
H       -2.4570931824   -3.4270154763    0.0573223970
H       -2.5383764266   -2.1728379781    1.2406423621
H       -4.1123081905   -2.6854888165    3.1325351601
H       -6.4155586061   -3.5723259691    3.6477860384
H       -7.7912478166   -4.6033533568    1.8175893224
H       -6.8973394462   -4.7815679727   -0.4906337704
H       -4.5686052985   -4.1243143920   -0.9050649752
N       -2.2174472491   -1.8820667663    4.2017865841
C       -1.3943248972   -3.0171369513    4.3130642192
C       -0.5138213537   -3.3034217142    3.2630307517
C        0.3877710641   -4.3530909879    3.4062281637
C        0.4143108863   -5.1196516162    4.5923749417
C       -0.5475271428   -4.9318219909    5.5887170343
C       -1.4367083016   -3.8670335978    5.4346695618
H       -2.6654873061   -1.5698342804    5.0572496880
H       -1.7760605116   -1.1190399777    3.6980643929
H       -0.3043901335   -2.5966114708    2.4561206001
H        1.1842128473   -4.5433638187    2.6859496324
H        1.1501890412   -5.9170703693    4.6505627214
H       -0.5088698622   -5.4780204287    6.5436231593
H       -2.0793551068   -3.5781849351    6.2642500295
C       -6.3322212200   -2.9230227625    7.5743332117
N       -5.0043507768   -2.7217833217    6.8899670456
O       -4.3551767879   -1.7824525843    7.3651194351
O       -4.6923889148   -3.4513067443    5.9696362327
H       -6.2633294901   -2.6951035595    8.6400112400
H       -6.6053333691   -3.9750115817    7.4297938463
H       -7.0946255287   -2.3201641980    7.0699868351
35   
Iteration 2 Energy -819.72026356
N       -2.8134087034   -3.1007041485    0.8168883193
C       -4.1556766710   -3.4622518830    1.0887852591
C       -4.8026355337   -3.3480991366    2.3588407033
C       -6.0995610717   -3.6921528671    2.6329471005
C       -6.9319281972   -4.2691409200    1.6601888174
C       -6.2358546342   -4.4240163169    0.4306134267
C       -4.9407049496   -4.0275197690    0.0346090319
H       -2.4357355915   -3.2557449989   -0.0878080148
H       -2.5104589342   -2.2280453353    1.2005029064
H       -4.2117935218   -2.9436044902    3.1843384797
H       -6.4812105288   -3.5429124455    3.6710721754
H       -7.9534234352   -4.5396420236    1.8339265761
H       -6.8385573725   -4.8538290809   -0.3871590636
H       -4.5545387548   -4.1299178876   -0.9892291670
N       -2.1891829185   -1.8226214113    4.2584813829
C       -1.3073924914   -2.9115537708    4.3957710151
C       -0.3582713711   -3.2471395855    3.4116851620
C        0.5152997499   -4.3584022092    3.4773657646
C        0.4630461519   -5.2178083833    4.5734472713
C       -0.4539678506   -4.8330512888    5.5440494331
C       -1.3546616383   -3.7626542882    5.5082389079
H       -2.6615322351   -1.5812053861    5.1049725030
H       -1.8581693407   -1.0027757683    3.7692358144
H       -0.3281628149   -2.5835681854    2.5485884741
H        1.2047153261   -4.5434647794    2.6448726949
H        1.0841884755   -6.1183312790    4.6647138185
H       -0.5097501028   -5.4550308014    6.4136118437
H       -2.0513173571   -3.5648937048    6.3160678035
C       -6.3513056471   -2.9567057335    7.5684731077
N       -5.0666547358   -2.6923814864    6.9272652789
O       -4.3340299490   -1.8039680336    7.2500450973
O       -4.7791164219   -3.3893036676    5.9926366196
H       -6.2275648402   -2.6712415929    8.6205857616
H       -6.5853721060   -4.0143929765    7.4065241204
H       -7.0487494714   -2.2872834776    7.0417743153
35   
Iteration 3 Energy -819.75045096
N       -2.8563761945   -3.1133552650    0.8315680328
C       -4.1801623673   -3.4691275898    1.1161916309
C       -4.7428802807   -3.3263514798    2.4005334438
C       -6.0677575937   -3.6881574844    2.6292534626
C       -6.8465586173   -4.2574006810    1.6124089713
C       -6.3002124044   -4.4842865001    0.3415813082
C       -4.9921843120   -4.0390630013    0.1165123562
H       -2.5427999195   -3.2396022244   -0.1199419577
H       -2.5164965490   -2.2616421869    1.2545431569
H       -4.1199581126   -2.9332924051    3.2033192368
H       -6.4871351835   -3.5504001680    3.6319067678
H       -7.8845088319   -4.5200652402    1.8131540269
H       -6.8991131576   -4.9002293871   -0.4732550510
H       -4.5692999228   -4.1328889807   -0.8857532672
N       -2.1725889974   -1.8493773989    4.2874372948
C       -1.2710262333   -2.9146551181    4.3822388284
C       -0.3416169673   -3.1994645111    3.3625860986
C        0.4883875532   -4.3169405263    3.4743221290
C        0.4209773572   -5.1628692974    4.5848862575
C       -0.4713130100   -4.8678599278    5.6166989963
C       -1.3216243597   -3.7682452026    5.4979627537
H       -2.6583402336   -1.6212003387    5.1470208749
H       -1.8328030260   -1.0265957548    3.8082807079
H       -0.3005940500   -2.5659612417    2.4749126113
H        1.1802622519   -4.5397177318    2.6601165983
H        1.0554263597   -6.0488363016    4.6425135315
H       -0.5472223240   -5.5145376121    6.4919675062
H       -2.0445884053   -3.5566840770    6.2856813590
C       -6.3398813307   -2.9490848008    7.5609968256
N       -5.0304001902   -2.6941469514    6.8869795476
O       -4.3237860475   -1.7672554407    7.2670922263
O       -4.7653919816   -3.4145790059    5.9425526957
H       -6.2332748204   -2.6688749481    8.6114219361
H       -6.6074915245   -4.0002727920    7.4214139969
H       -7.0668366692   -2.2967002848    7.0623324597
35   
Iteration 4 Energy -819.74616170
N       -2.8903356677   -3.1359523026    0.9041532014
C       -4.2212270756   -3.5075043856    1.0557588881
C       -4.7256306477   -3.3219345803    2.3532725274
C       -6.0477189215   -3.7001252617    2.6223229081
C       -6.8546495817   -4.2749687217    1.6376761321
C       -6.2969189420   -4.4151114049    0.3691716444
C       -4.9931795722   -4.0680357455    0.0298094705
H       -2.5341761777   -3.1838481411   -0.0445063678
H       -2.5730845480   -2.3299114571    1.4290794761
H       -4.0791199829   -2.8974372453    3.1206065018
H       -6.4330888527   -3.5618165178    3.6278406324
H       -7.8868893043   -4.5833781734    1.8440701558
H       -6.9129114227   -4.8536203997   -0.4133626308
H       -4.5964313534   -4.2133846800   -0.9775953820
N       -2.1438021337   -1.8395813802    4.2891456921
C       -1.2864674030   -2.9336940185    4.4200916697
C       -0.3748063739   -3.2022386324    3.3849183867
C        0.4722119185   -4.3017568651    3.4601862852
C        0.4215703978   -5.1398088364    4.5794080033
C       -0.5070563432   -4.8880525264    5.5971591616
C       -1.3583294972   -3.7863474893    5.5372151806
H       -2.6549560411   -1.5753007080    5.1271824101
H       -1.7550936530   -1.0416935608    3.8020868804
H       -0.3238311010   -2.5497201822    2.5115851163
H        1.1779756968   -4.5047564483    2.6545083274
H        1.0916936083   -5.9953871074    4.6428675357
H       -0.5556157548   -5.5468409036    6.4725220525
H       -2.0687819091   -3.5763878544    6.3383472295
C       -6.3184935255   -2.9268775582    7.5524856229
N       -5.0212466414   -2.7176087950    6.8217934112
O       -4.3915206862   -1.7733509719    7.2969062403
O       -4.7300173212   -3.4394980696    5.8786120619
H       -6.1946376644   -2.6447357656    8.6003906661
H       -6.6002971832   -3.9747173344    7.4338128502
H       -7.0665779883   -2.2842317812    7.0753521242
35   
Iteration 5 Energy -819.75422210
N       -2.8748240429   -3.1460396813    0.8631243129
C       -4.2042607647   -3.4967184971    1.0926710897
C       -4.7477790733   -3.3298048993    2.3817832635
C       -6.0634240351   -3.7107754701    2.6391704847
C       -6.8499629799   -4.2756741959    1.6291446778
C       -6.3150400759   -4.4313379778    0.3483200604
C       -4.9994056300   -4.0572160980    0.0772094051
H       -2.5625994348   -3.1759727167   -0.0978040739
H       -2.5133943779   -2.3601656388    1.3855824282
H       -4.1201623189   -2.9124561772    3.1688226083
H       -6.4641771795   -3.5819698086    3.6452013201
H       -7.8753205703   -4.5851360520    1.8365570368
H       -6.9178555772   -4.8754506000   -0.4458014802
H       -4.5836003645   -4.1953449161   -0.9235801369
N       -2.1485287174   -1.8213845868    4.3045259732
C       -1.2846958756   -2.9151499188    4.4160184449
C       -0.3663326284   -3.1962070457    3.3907021988
C        0.4759344846   -4.3037957747    3.4744800996
C        0.4283303653   -5.1564506367    4.5815840405
C       -0.5021063373   -4.8878789993    5.5904869600
C       -1.3463773088   -3.7797686263    5.5233656365
H       -2.6558370459   -1.5762040895    5.1465609628
H       -1.7752575532   -1.0105075607    3.8277059764
H       -0.3171237963   -2.5443330618    2.5175221350
H        1.1795600880   -4.5029763082    2.6646490198
H        1.0935793279   -6.0174259531    4.6485646812
H       -0.5585795835   -5.5420098722    6.4629701818
H       -2.0568923141   -3.5724142187    6.3228597238
C       -6.3278047495   -2.9332325597    7.5509515562
N       -5.0302331695   -2.6911868164    6.8430246436
O       -4.3204113606   -1.7708111632    7.2269286051
O       -4.7634344021   -3.4198404124    5.9044500094
H       -6.2097699311   -2.6551370069    8.6010523705
H       -6.5904256762   -3.9849736933    7.4164796548
H       -7.0729703805   -2.2898516980    7.0680281664
35   
Iteration 6 Energy -819.75452269
N       -2.8703770459   -3.1605776546    0.8425242820
C       -4.1936723835   -3.5010752663    1.1140410730
C       -4.7557627505   -3.3510393103    2.3966932182
C       -6.0724052430   -3.7361036910    2.6329925004
C       -6.8829792987   -4.2881663597    1.6337754435
C       -6.3152539883   -4.4605097487    0.3679406652
C       -5.0041124839   -4.0566432998    0.1076142787
H       -2.5951865250   -3.1190559422   -0.1279468387
H       -2.4644783283   -2.4316976095    1.4114663052
H       -4.1393059684   -2.9450719104    3.1985469451
H       -6.4751771153   -3.6063828530    3.6392635342
H       -7.9115814166   -4.5837902484    1.8379908070
H       -6.9065654671   -4.9000223400   -0.4380863174
H       -4.5878810891   -4.1834448498   -0.8941802785
N       -2.1509177403   -1.8110835827    4.3325941512
C       -1.2738904977   -2.8958587415    4.4140457355
C       -0.3456431363   -3.1760083764    3.3950713898
C        0.4868277559   -4.2914826080    3.4808956819
C        0.4107864090   -5.1520670039    4.5791560573
C       -0.5014100870   -4.8867895667    5.6036200299
C       -1.3343069612   -3.7724643212    5.5116723342
H       -2.6652343476   -1.5987595846    5.1786829689
H       -1.7909933257   -0.9820663114    3.8786449646
H       -0.2964720751   -2.5245678212    2.5213298843
H        1.1902155322   -4.4945044993    2.6713136626
H        1.0623091203   -6.0241124760    4.6404452292
H       -0.5678321831   -5.5447190253    6.4709760098
H       -2.0539500554   -3.5676515440    6.3031362509
C       -6.3146397898   -2.9275520836    7.5402758724
N       -5.0299954379   -2.6976826583    6.8167118089
O       -4.3416964241   -1.7655905913    7.2036659466
O       -4.7747547773   -3.4194347291    5.8700654426
H       -6.1717269026   -2.6370849711    8.5841066016
H       -6.5857729605   -3.9785753438    7.4175785652
H       -7.0569046893   -2.2765393908    7.0625993005
35   
Iteration 7 Energy -819.75585857
N       -2.8882910676   -3.1794661782    0.8652981278
C       -4.2127471943   -3.5231826377    1.1078305186
C       -4.7587529165   -3.3734337277    2.3966684924
C       -6.0727375275   -3.7516995618    2.6529363781
C       -6.8706541220   -4.2949577853    1.6397755406
C       -6.3260029268   -4.4766643779    0.3647072554
C       -5.0183347881   -4.0719304294    0.0931696001
H       -2.6107826583   -3.0486502266   -0.0964442837
H       -2.4640372567   -2.5258620656    1.5078111139
H       -4.1322524360   -2.9693634703    3.1917464487
H       -6.4735244261   -3.6226710601    3.6597288932
H       -7.8988461524   -4.5890524060    1.8467960924
H       -6.9301339032   -4.9125160874   -0.4335405145
H       -4.6028018018   -4.1985860767   -0.9089841326
N       -2.1431775983   -1.7998733127    4.3450518804
C       -1.2733498531   -2.8879161208    4.4346788600
C       -0.3402936519   -3.1559074054    3.4163107219
C        0.4885255614   -4.2746221268    3.4899581993
C        0.4093796010   -5.1532640184    4.5726518413
C       -0.5073768629   -4.8807730825    5.5917318726
C       -1.3470874544   -3.7701042987    5.5271326681
H       -2.6786964054   -1.5947926021    5.1799399740
H       -1.7733447139   -0.9685212060    3.9037511609
H       -0.2885815409   -2.4942247161    2.5497898969
H        1.1912595705   -4.4676388047    2.6776543018
H        1.0557441574   -6.0296276466    4.6285549452
H       -0.5766993267   -5.5491200662    6.4505315860
H       -2.0695447188   -3.5760481121    6.3194884915
C       -6.3032575608   -2.9195985298    7.5288776921
N       -5.0288804220   -2.6902660080    6.7875319744
O       -4.3272951601   -1.7600521101    7.1559931571
O       -4.7884802111   -3.4204548127    5.8436918987
H       -6.1444308562   -2.6248476024    8.5690116170
H       -6.5774148546   -3.9708023288    7.4140327649
H       -7.0517860575   -2.2690618445    7.0606114530
35   
Iteration 8 Energy -819.75632550
N       -2.9037249265   -3.2103658883    0.9029918241
C       -4.2297518084   -3.5513220239    1.1215139012
C       -4.7631208198   -3.4055256794    2.4159984679
C       -6.0789860586   -3.7900395207    2.6644828583
C       -6.8827694635   -4.3293387129    1.6545193170
C       -6.3445911861   -4.4674703623    0.3722260492
C       -5.0303778298   -4.0910464356    0.0979261137
H       -2.6289311522   -2.9655787312   -0.0376148303
H       -2.4438125176   -2.6789171286    1.6286304591
H       -4.1387920732   -2.9961409817    3.2105218215
H       -6.4760337954   -3.6698413513    3.6723292536
H       -7.9074645990   -4.6394744679    1.8627054292
H       -6.9526375367   -4.8897329395   -0.4296062551
H       -4.6154744196   -4.2258769278   -0.9036043731
N       -2.1331676308   -1.7803025030    4.3585504187
C       -1.2771708866   -2.8774393545    4.4596468415
C       -0.3415114190   -3.1189868901    3.4387921570
C        0.4824704656   -4.2416641955    3.4955859991
C        0.3973167310   -5.1340062791    4.5681233520
C       -0.5321207673   -4.8980443657    5.5862301255
C       -1.3614372417   -3.7789164749    5.5373067092
H       -2.6980380984   -1.5821664765    5.1758716796
H       -1.7489644802   -0.9469977153    3.9326098306
H       -0.2708816022   -2.4331382677    2.5919432326
H        1.1951731163   -4.4226633537    2.6893133696
H        1.0496641619   -6.0060885106    4.6106265050
H       -0.6042652032   -5.5837901714    6.4326629377
H       -2.0845646799   -3.5914877909    6.3304663897
C       -6.2839966544   -2.9017251447    7.5115225748
N       -5.0245258656   -2.6732450033    6.7372353780
O       -4.2837148233   -1.7531043794    7.0579677695
O       -4.8085293195   -3.4245826785    5.8047952571
H       -6.1074136365   -2.6072745750    8.5487479876
H       -6.5589838913   -3.9537197710    7.4062055735
H       -7.0489692775   -2.2584847399    7.0602641913
35   
Iteration 9 Energy -819.75691024
N       -2.9060884151   -3.2378630420    0.9239953523
C       -4.2322431841   -3.5697087703    1.1549983469
C       -4.7852061149   -3.4401402393    2.4441848043
C       -6.1003217856   -3.8303287363    2.6920007025
C       -6.8902906063   -4.3532354625    1.6629598228
C       -6.3542176167   -4.4627230883    0.3768408879
C       -5.0329199174   -4.0962759913    0.1241549466
H       -2.6430464140   -2.9285129057   -0.0008516559
H       -2.4068398603   -2.7953850158    1.6823998051
H       -4.1703112665   -3.0302510865    3.2453699031
H       -6.5018812631   -3.7261245251    3.6998703779
H       -7.9149426533   -4.6714420302    1.8597093264
H       -6.9586190386   -4.8709998585   -0.4351691050
H       -4.6112747725   -4.2259604001   -0.8749441066
N       -2.1448022766   -1.7609532960    4.3816622312
C       -1.2854031164   -2.8571648851    4.4655201475
C       -0.3357997854   -3.0998569440    3.4576074202
C        0.4888405817   -4.2233790485    3.5009098790
C        0.3993507563   -5.1322819666    4.5592976131
C       -0.5489955920   -4.8937484605    5.5597629031
C       -1.3781637229   -3.7730449779    5.5294344656
H       -2.7213587525   -1.5831306030    5.1957550328
H       -1.7638424807   -0.9177849630    3.9726580919
H       -0.2453422502   -2.3979608366    2.6257473970
H        1.2102811447   -4.3912283954    2.6996096308
H        1.0487169697   -6.0068340178    4.5993705070
H       -0.6320943062   -5.5880598917    6.3983116783
H       -2.1021151655   -3.5940023294    6.3236044490
C       -6.2598257681   -2.8825329614    7.4962563874
N       -5.0183741738   -2.6780423907    6.6864870351
O       -4.2900562823   -1.7456395875    7.0033679442
O       -4.8163977419   -3.4360644921    5.7558633236
H       -6.0571237684   -2.5806816678    8.5268159031
H       -6.5443125691   -3.9333269077    7.4084247729
H       -7.0325605725   -2.2398391513    7.0575127313
35   
Iteration 10 Energy -819.75733596
N       -2.9025977738   -3.2548479177    0.9453659899
C       -4.2319783077   -3.5844520112    1.1682269437
C       -4.7900788660   -3.4611409581    2.4552005214
C       -6.1053615048   -3.8528830485    2.6948293451
C       -6.9017803064   -4.3543456043    1.6602505692
C       -6.3527211028   -4.4750214470    0.3795668731
C       -5.0337094675   -4.0961915428    0.1298548125
H       -2.6314458325   -2.9456519587    0.0238990308
H       -2.4039893160   -2.8179804406    1.7073056718
H       -4.1763424897   -3.0618700065    3.2621687541
H       -6.5084612567   -3.7581066210    3.7038310222
H       -7.9319187595   -4.6561643920    1.8506082580
H       -6.9562201787   -4.8755539779   -0.4373386694
H       -4.6095918252   -4.2109722011   -0.8698721270
N       -2.1525441766   -1.7589550943    4.3903449769
C       -1.2855774284   -2.8484091516    4.4613460080
C       -0.3301078619   -3.0796797076    3.4544873328
C        0.4924624102   -4.2049576991    3.5049759666
C        0.3900624569   -5.1251671772    4.5517721901
C       -0.5535258873   -4.8936489116    5.5569078059
C       -1.3817272641   -3.7732023920    5.5173381502
H       -2.7235871426   -1.5906018659    5.2103004370
H       -1.7824129065   -0.9115902705    3.9811697237
H       -0.2371641709   -2.3727303686    2.6270567303
H        1.2190705141   -4.3685792827    2.7074929908
H        1.0331228223   -6.0048501581    4.5842008012
H       -0.6442078498   -5.5929161587    6.3897445972
H       -2.1132052991   -3.6003026481    6.3060029187
C       -6.2509919956   -2.8760968690    7.4932925108
N       -5.0145845964   -2.6792918757    6.6797785610
O       -4.2888142486   -1.7393107985    6.9777239354
O       -4.8244691210   -3.4424031538    5.7519059462
H       -6.0356788133   -2.5669576460    8.5188636426
H       -6.5409161353   -3.9263601804    7.4134395774
H       -7.0198920324   -2.2295110124    7.0535905398
35   
Iteration 11 Energy -819.75765769
N       -2.8967625251   -3.2896732917    0.9829053288
C       -4.2307572501   -3.6105626197    1.1963193011
C       -4.7945871037   -3.5017610256    2.4811816054
C       -6.1162546884   -3.8860476323    2.6957723215
C       -6.9167121092   -4.3668779585    1.6545467807
C       -6.3573691548   -4.4761298866    0.3769481535
C       -5.0338966462   -4.0992765324    0.1476874606
H       -2.6147688907   -2.9864442845    0.0632040950
H       -2.3967781272   -2.8602403291    1.7480110129
H       -4.1844982134   -3.1207273820    3.2992024130
H       -6.5261850624   -3.8040476457    3.7034018794
H       -7.9512785749   -4.6582768922    1.8357878238
H       -6.9569963676   -4.8581128077   -0.4517254739
H       -4.6028673058   -4.1981728217   -0.8505049074
N       -2.1610081370   -1.7509484423    4.3953715713
C       -1.2938020811   -2.8384283035    4.4653548150
C       -0.3263647018   -3.0531543165    3.4650776214
C        0.5027097954   -4.1744814384    3.4987921280
C        0.3800000391   -5.1049352642    4.5335893452
C       -0.5695038210   -4.8924052323    5.5374370733
C       -1.4033941962   -3.7765059670    5.5085276889
H       -2.7327132616   -1.5818295148    5.2147582582
H       -1.7966703007   -0.9051617190    3.9784861854
H       -0.2290955561   -2.3294087009    2.6529286837
H        1.2385326787   -4.3243606270    2.7068589493
H        1.0198995954   -5.9870566779    4.5591940173
H       -0.6659650281   -5.6064129213    6.3566935114
H       -2.1439415535   -3.6182548130    6.2917700286
C       -6.2368018750   -2.8604222943    7.4906492865
N       -5.0109226029   -2.6762170555    6.6609967877
O       -4.2781189635   -1.7339173077    6.9333480789
O       -4.8283335942   -3.4602782778    5.7502399950
H       -6.0040493862   -2.5425273891    8.5095758476
H       -6.5335013849   -3.9098687399    7.4245592196
H       -7.0058742473   -2.2122394546    7.0539554761
35   
Iteration 12 Energy -819.75841804
N       -2.8813840100   -3.4240570264    1.1179199880
C       -4.2306727415   -3.7108153301    1.2850037862
C       -4.8241440160   -3.6566536513    2.5585859046
C       -6.1644737591   -4.0015282306    2.7195993586
C       -6.9557517495   -4.4096272751    1.6417767027
C       -6.3628825786   -4.4594524279    0.3747670243
C       -5.0238213958   -4.1144489682    0.1930798168
H       -2.5545360617   -3.1333030542    0.2099204776
H       -2.3807926210   -3.0363155113    1.9042478099
H       -4.2232308060   -3.3380472196    3.4078814366
H       -6.5960972628   -3.9612300493    3.7213065565
H       -8.0031610053   -4.6757513857    1.7825030369
H       -6.9543576226   -4.7732291799   -0.4876931254
H       -4.5716810179   -4.1672085756   -0.7988861955
N       -2.1947071800   -1.7142501442    4.4135089919
C       -1.3209123556   -2.7926725965    4.4632175139
C       -0.3176036402   -2.9379189042    3.4854514386
C        0.5095512165   -4.0618547449    3.5031467759
C        0.3581462965   -5.0497047934    4.4795088903
C       -0.6242520156   -4.9056775197    5.4630425348
C       -1.4591674334   -3.7910538260    5.4473038481
H       -2.7687791079   -1.5544072864    5.2331354281
H       -1.8581725078   -0.8677873215    3.9766356528
H       -0.1889540930   -2.1627144515    2.7267381905
H        1.2792009001   -4.1667742242    2.7367167954
H        1.0017714709   -5.9294510720    4.4735299769
H       -0.7501287883   -5.6628222057    6.2384231003
H       -2.2304760285   -3.6778608641    6.2072729743
C       -6.1859722219   -2.7996580714    7.4838389042
N       -4.9959602262   -2.6730266952    6.5965464272
O       -4.2512087348   -1.7171976146    6.7768885527
O       -4.8380539427   -3.5239449159    5.7455452838
H       -5.8963313739   -2.4526526150    8.4782263475
H       -6.5079716783   -3.8435267617    7.4692222294
H       -6.9568831922   -2.1470024513    7.0580234425
35   
Iteration 13 Energy -819.75919749
N       -2.8713210612   -3.5468175609    1.2188451552
C       -4.2298617903   -3.7971879374    1.3382355302
C       -4.8370453183   -3.7772908345    2.6061210782
C       -6.1892372843   -4.0908292495    2.7315503662
C       -6.9726273681   -4.4288410851    1.6237438507
C       -6.3648547362   -4.4378643046    0.3631131561
C       -5.0137841195   -4.1277034090    0.2154078904
H       -2.5011202115   -3.2849504968    0.3186647069
H       -2.3778014021   -3.1800741335    2.0200602183
H       -4.2397671000   -3.5114565451    3.4752042991
H       -6.6366452823   -4.0821667831    3.7270203408
H       -8.0290323928   -4.6737197083    1.7371341906
H       -6.9516483397   -4.6987770883   -0.5197149093
H       -4.5476838853   -4.1503332951   -0.7714469951
N       -2.2200548518   -1.6813511139    4.4102218791
C       -1.3376501072   -2.7507149687    4.4397280038
C       -0.2965196697   -2.8652810981    3.4977849531
C        0.5361593331   -3.9851151539    3.4892291331
C        0.3587940131   -5.0081149601    4.4242678159
C       -0.6630970677   -4.9021148773    5.3728498520
C       -1.5013429700   -3.7897766669    5.3772311446
H       -2.8059843407   -1.5358259613    5.2238457209
H       -1.9066983587   -0.8320252659    3.9628130347
H       -0.1430636659   -2.0583404167    2.7780837757
H        1.3314163820   -4.0558590091    2.7453595261
H        1.0072120327   -5.8840262653    4.4099535421
H       -0.8129166164   -5.6895398504    6.1138157291
H       -2.2969562954   -3.7117607491    6.1152913451
C       -6.1627828390   -2.7502197892    7.4987015611
N       -4.9857097112   -2.6760403786    6.5876667059
O       -4.2525327463   -1.6985795224    6.6890382048
O       -4.8409290837   -3.5693275265    5.7792629210
H       -5.8452579408   -2.3813163914    8.4766279920
H       -6.5043805815   -3.7871999517    7.5213955171
H       -6.9299571866   -2.0937050930    7.0722134676
35   
Iteration 14 Energy -819.76053725
N       -2.8399642141   -3.8097758466    1.3725006480
C       -4.2075231210   -3.9745254261    1.4289512427
C       -4.8610537033   -4.0221495010    2.6750171355
C       -6.2327914955   -4.2575841610    2.7481198651
C       -6.9882053514   -4.4449033742    1.5846982188
C       -6.3444976243   -4.3845967915    0.3446345558
C       -4.9728773887   -4.1521955975    0.2602308034
H       -2.4022925652   -3.6535558810    0.4777031364
H       -2.3450876670   -3.4501187802    2.1771964428
H       -4.2763015710   -3.8752536470    3.5792098065
H       -6.7132712650   -4.3017968717    3.7272706247
H       -8.0604017670   -4.6386157380    1.6419154418
H       -6.9158323989   -4.5352688231   -0.5731178788
H       -4.4816460424   -4.1166652000   -0.7146392133
N       -2.2281568393   -1.6230874350    4.3293058490
C       -1.3493593600   -2.6876286242    4.3660177517
C       -0.2420282355   -2.7239292362    3.4971516032
C        0.6008690883   -3.8340459817    3.4529761229
C        0.3822675312   -4.9259768165    4.2965841411
C       -0.7154734968   -4.8883789151    5.1643636427
C       -1.5731244012   -3.7927752558    5.2146330280
H       -2.8679737031   -1.4901317947    5.1020036890
H       -1.9336589506   -0.7813105833    3.8572761266
H       -0.0544243360   -1.8670673305    2.8468504125
H        1.4426398901   -3.8397934483    2.7590542422
H        1.0436485422   -5.7915227917    4.2698887448
H       -0.9067223314   -5.7341678195    5.8283017886
H       -2.4226529788   -3.7862643725    5.8932652773
C       -6.1590885999   -2.6528798859    7.5664758121
N       -4.9999350128   -2.6696157878    6.6307349759
O       -4.3042443349   -1.6592645141    6.6185533286
O       -4.8343976803   -3.6478232688    5.9304742620
H       -5.8034876284   -2.2417976831    8.5148766878
H       -6.5325688545   -3.6740450819    7.6553168889
H       -6.9114463361   -1.9883488065    7.1269999650
35   
Iteration 15 Energy -819.76159232
N       -2.8188756184   -4.0373630554    1.4910946716
C       -4.1882404819   -4.1334786605    1.5010648925
C       -4.8707106584   -4.2330607154    2.7317269488
C       -6.2537658470   -4.3902840465    2.7659178316
C       -6.9876690621   -4.4579259965    1.5752432296
C       -6.3185889168   -4.3493274727    0.3524967748
C       -4.9348845821   -4.1870810190    0.3066042755
H       -2.3389981794   -3.8763129843    0.6200853257
H       -2.3139855511   -3.7893035318    2.3307147337
H       -4.3011193554   -4.1868018246    3.6575536551
H       -6.7592128212   -4.4672967779    3.7306281800
H       -8.0685960784   -4.6004456625    1.5986040188
H       -6.8787235226   -4.4014838154   -0.5831275266
H       -4.4239171045   -4.1094767076   -0.6560546964
N       -2.2455764372   -1.5800566537    4.2837961106
C       -1.3474766267   -2.6251891045    4.2823756579
C       -0.1874520187   -2.6103279817    3.4812105799
C        0.6653686794   -3.7125809093    3.4242230026