24   
Iteration 0 Energy -1617.74918596
C        8.2819114900    6.1830459800  -14.9170554900
C        7.8564735700    7.2068573200  -13.8671640200
Cl       8.9410797400    8.6695152500  -13.6502374400
H        7.5240799200    5.3578811900  -14.9939063800
H        8.4156624100    6.7492996500  -15.8822225300
H        9.2889038300    5.8166214200  -14.6570657500
H        7.8117729400    6.7188888800  -12.8769038900
H        6.8154045300    7.6216675000  -14.1124757500
C        8.4929627200    9.5874191500  -16.9308043700
C        8.7349289700   10.7350899000  -17.7532378400
Cl       9.3622483000   12.0881210600  -16.7100173200
H        9.4003418700    9.1225715900  -16.4880172000
H        7.7325409700    9.8595520300  -16.1536742400
H        8.0238999100    8.7774826300  -17.5635176900
H        7.8049515500   10.9937301900  -18.2903624800
H        9.5120362100   10.5057197800  -18.4646178500
C       13.1738373000    6.7362979600  -18.7297698200
C       12.5389572400    8.0221446700  -18.5510169200
Cl      12.0141235600    8.3779929900  -16.9836264800
H       12.8346115400    5.9711211900  -18.0637351300
H       13.0342346400    6.2588332900  -19.6490851600
H       14.2617431900    6.7894214400  -18.7032271600
H       11.7141166900    8.1920703600  -19.1653853600
H       13.1811462600    8.8594154100  -18.8337317700
24   
Iteration 1 Energy -1617.78275467
C        8.3092274940    6.2300719536  -14.9114872557
C        7.8349553321    7.1841260926  -13.8260714351
Cl       8.9581920471    8.5833611257  -13.5945328061
H        7.5745991539    5.4233698811  -15.0072743323
H        8.4242270104    6.7453582225  -15.8749931960
H        9.2959594945    5.8158038980  -14.6636303917
H        7.7713600674    6.7011541786  -12.8446242786
H        6.8538382326    7.6129436765  -14.0595960722
C        8.4438082417    9.5347156837  -16.9320851975
C        8.7487871984   10.7433812420  -17.7865851640
Cl       9.3591560966   12.1452864332  -16.8011539346
H        9.3395006371    9.1051957355  -16.4777712542
H        7.7156235429    9.7500773055  -16.1392772269
H        7.9945998676    8.7401304493  -17.5575908538
H        7.8662071558   11.1102290352  -18.3247772681
H        9.5421335359   10.5653890513  -18.5241038753
C       13.1999105818    6.7132829962  -18.7397820065
C       12.5264616133    8.0548841177  -18.5617609496
Cl      12.0039728041    8.3873148225  -16.8908883991
H       12.8336169127    5.9641445309  -18.0230323768
H       13.0082712664    6.2924635072  -19.7411896356
H       14.2953313751    6.7636791227  -18.6351674950
H       11.6483669878    8.1628207941  -19.2143616290
H       13.2038627010    8.8715769749  -18.8591210064
24   
Iteration 2 Energy -1617.78496104
C        8.3226622492    6.2441206323  -14.9014354066
C        7.8422555170    7.1762408679  -13.8075446655
Cl       8.9867260754    8.5595921191  -13.5420042700
H        7.5947284334    5.4290729124  -15.0227495834
H        8.4243480645    6.7718789993  -15.8563697346
H        9.3010893670    5.8143122079  -14.6502860936
H        7.7670510238    6.6661415039  -12.8413554025
H        6.8699434684    7.6190124975  -14.0463122329
C        8.4281083149    9.5312206562  -16.9573241488
C        8.7469958314   10.7414525657  -17.8048272439
Cl       9.3556994444   12.1312300245  -16.7976710871
H        9.3302742218    9.1260859248  -16.4911643373
H        7.7083940765    9.7717095253  -16.1670920396
H        7.9873057337    8.7474209001  -17.5940079675
H        7.8685804013   11.1241655455  -18.3366044393
H        9.5413571623   10.5368582167  -18.5329915661
C       13.2018061885    6.7036596785  -18.7436719215
C       12.5248206854    8.0580396613  -18.5773123662
Cl      12.0171805565    8.3784860091  -16.8791433569
H       12.8097813512    5.9672966335  -18.0270461880
H       13.0184029817    6.3108026013  -19.7589649788
H       14.2890625454    6.7678125271  -18.5954143869
H       11.6214030935    8.1424278726  -19.1999503774
H       13.1939925630    8.8817207488  -18.8596142459
24   
Iteration 3 Energy -1617.78581562
C        8.3412082158    6.2568115994  -14.8983106687
C        7.8556229569    7.1690250931  -13.7914160507
Cl       9.0153310487    8.5374236152  -13.4925479272
H        7.6152533225    5.4397116956  -15.0396808429
H        8.4365648036    6.7985675187  -15.8470630268
H        9.3133386388    5.8131619764  -14.6479963415
H        7.7642722644    6.6403404803  -12.8359174350
H        6.8926571487    7.6339234762  -14.0336241459
C        8.4131325083    9.5274690123  -16.9761144890
C        8.7486214851   10.7376065604  -17.8216395209
Cl       9.3666932754   12.1131398858  -16.8020269963
H        9.3137763359    9.1330948510  -16.4942331503
H        7.6894721482    9.7819852948  -16.1920566720
H        7.9825699010    8.7478259860  -17.6225677129
H        7.8758082252   11.1338883515  -18.3523928677
H        9.5442153411   10.5191570357  -18.5429577217
C       13.1972202656    6.7003238016  -18.7443732247
C       12.5100586113    8.0557410023  -18.5855287510
Cl      12.0248932895    8.3821457264  -16.8643920466
H       12.7711262061    5.9643469953  -18.0507796102
H       13.0524587170    6.3337317816  -19.7722065824
H       14.2733921715    6.7752110097  -18.5436514384
H       11.5872752553    8.1200756271  -19.1752158180
H       13.1670072144    8.8860524557  -18.8641649995
24   
Iteration 4 Energy -1617.78652286
C        8.3650404602    6.2711962349  -14.8994046737
C        7.8767389185    7.1641597532  -13.7795102313
Cl       9.0532243592    8.5130283745  -13.4413893057
H        7.6378929226    5.4568853078  -15.0589157514
H        8.4601737414    6.8290527510  -15.8387292951
H        9.3325883809    5.8166847456  -14.6516455111
H        7.7661581235    6.6174229793  -12.8360751448
H        6.9257424229    7.6522116905  -14.0241049223
C        8.3978800224    9.5232889338  -16.9930344871
C        8.7553104960   10.7305867387  -17.8369110454
Cl       9.3890424493   12.0930145734  -16.8105239375
H        9.2893606448    9.1311178135  -16.4910554073
H        7.6618793464    9.7872224361  -16.2229874035
H        7.9785705495    8.7436832494  -17.6466556732
H        7.8898175814   11.1393761779  -18.3702577475
H        9.5512192390   10.4988039699  -18.5529096957
C       13.1852884825    6.7042592984  -18.7384196000
C       12.4813831554    8.0509010428  -18.5885174709
Cl      12.0286724843    8.3880329101  -16.8461468354
H       12.7158877086    5.9523707008  -18.0937566566
H       13.1072747360    6.3721972152  -19.7824255986
H       14.2444892196    6.7839961732  -18.4664795149
H       11.5395613344    8.0903260502  -19.1432592895
H       13.1187725718    8.8909417133  -18.8777428417
24   
Iteration 5 Energy -1617.78752892
C        8.4155265387    6.2985422761  -14.9082639582
C        7.9254874494    7.1610910976  -13.7661772742
Cl       9.1327982141    8.4667972890  -13.3570758672
H        7.6827036010    5.4950470619  -15.0975759367
H        8.5201547631    6.8844322906  -15.8292900783
H        9.3765078882    5.8275707070  -14.6664668446
H        7.7786519272    6.5854800966  -12.8448956348
H        6.9970050649    7.6905457278  -14.0124383821
C        8.3723307433    9.5150030958  -17.0184887344
C        8.7755531892   10.7106420389  -17.8604526785
Cl       9.4400141721   12.0520584583  -16.8286054053
H        9.2395024504    9.1202233699  -16.4760512364
H        7.6060776953    9.7943626486  -16.2830969028
H        7.9736195804    8.7317655069  -17.6814163653
H        7.9269349738   11.1418939719  -18.4035294000
H        9.5711293161   10.4530475326  -18.5674439710
C       13.1519990806    6.7206537842  -18.7189328659
C       12.4088039975    8.0384741463  -18.5841324209
Cl      12.0211817855    8.4030294734  -16.8132773166
H       12.6072954007    5.9216991741  -18.2047198376
H       13.2313898144    6.4683346791  -19.7835001016
H       14.1595362029    6.7976259057  -18.2945800817
H       11.4371835072    8.0254195240  -19.0793876397
H       13.0005819950    8.8970209809  -18.9110591069
24   
Iteration 6 Energy -1617.78806091
C        8.4396165995    6.3076469499  -14.9178904060
C        7.9533173272    7.1660112788  -13.7700746041
Cl       9.1717362075    8.4525737275  -13.3394033066
H        7.7009832297    5.5127988045  -15.1145265080
H        8.5566731618    6.9010667044  -15.8324207717
H        9.3990811603    5.8324328432  -14.6778894342
H        7.7936964587    6.5839920653  -12.8551039591
H        7.0320774946    7.7073037806  -14.0165236992
C        8.3659567085    9.5118953251  -17.0213960926
C        8.7906055436   10.6973049056  -17.8648301951
Cl       9.4661909179   12.0360517206  -16.8376531544
H        9.2188851678    9.1119660761  -16.4613832380
H        7.5838565283    9.7965774004  -16.3051512777
H        7.9735992607    8.7238657297  -17.6835936044
H        7.9515401041   11.1355774978  -18.4173232963
H        9.5868905498   10.4285289360  -18.5674180872
C       13.1294584807    6.7333904170  -18.7050980385
C       12.3646649001    8.0327219742  -18.5719485961
Cl      11.9921898145    8.4068792621  -16.8029575568
H       12.5659828346    5.9040215175  -18.2624437321
H       13.2876076998    6.5198506406  -19.7711607146
H       14.1073778565    6.8021197166  -18.2137936560
H       11.3870744993    7.9973262520  -19.0571755960
H       12.9329068457    8.8988573131  -18.9236985166
24   
Iteration 7 Energy -1617.78860913
C        8.4643620477    6.3093589846  -14.9352493734
C        7.9882378942    7.1802589339  -13.7906937956
Cl       9.2141112913    8.4548322904  -13.3647208965
H        7.7154808455    5.5266762312  -15.1296200724
H        8.6017423375    6.8996859468  -15.8487031010
H        9.4221806155    5.8310943801  -14.6934171839
H        7.8232728236    6.6035822957  -12.8734556230
H        7.0685338239    7.7224420659  -14.0387646911
C        8.3658135335    9.5105712643  -17.0087692569
C        8.8122088800   10.6789593105  -17.8593785509
Cl       9.4918979431   12.0262107137  -16.8460839081
H        9.2030899455    9.1041078699  -16.4323660863
H        7.5687819169    9.8024930048  -16.3128903131
H        7.9755222127    8.7148478524  -17.6643101275
H        7.9853825662   11.1188880442  -18.4290323226
H        9.6123996769   10.3974822710  -18.5537519237
C       13.1000977012    6.7503273070  -18.6867948863
C       12.3079129437    8.0278751301  -18.5468579237
Cl      11.9241538572    8.3969396417  -16.7985544713
H       12.5365816239    5.8859334704  -18.3117370261
H       13.3279997364    6.5744831391  -19.7505428373
H       14.0514214540    6.8088605390  -18.1417420227
H       11.3363848730    7.9738930233  -19.0510651942
H       12.8543988083    8.9009571316  -18.9223564537
24   
Iteration 8 Energy -1617.78881274
C        8.4786206618    6.3058657245  -14.9469054748
C        8.0093835548    7.1911530582  -13.8101014374
Cl       9.2390951445    8.4656871882  -13.4031107063
H        7.7230241429    5.5289739340  -15.1363248115
H        8.6248332150    6.8875675301  -15.8644298016
H        9.4326255270    5.8223030487  -14.7002166390
H        7.8454712552    6.6239067185  -12.8867456693
H        7.0888848628    7.7306660377  -14.0607290199
C        8.3627942610    9.5120984093  -16.9948918068
C        8.8233353474   10.6686398041  -17.8530320723
Cl       9.5008620874   12.0238204578  -16.8481848839
H        9.1924302465    9.1061329774  -16.4080851789
H        7.5615812782    9.8145521287  -16.3086430061
H        7.9732590701    8.7123721507  -17.6458770040
H        8.0050564935   11.1078401710  -18.4353895388
H        9.6284995329   10.3759956804  -18.5372640689
C       13.0858805240    6.7571573795  -18.6789497200
C       12.2779144980    8.0254848355  -18.5324070226
Cl      11.8799580774    8.3772932123  -16.7952685345
H       12.5256656827    5.8808274404  -18.3255751006
H       13.3336655673    6.6001312228  -19.7418251916
H       14.0270536218    6.8159081038  -18.1158666113
H       11.3143461496    7.9625533121  -19.0538690284
H       12.8177285497    8.9038303173  -18.9071657128
24   
Iteration 9 Energy -1617.78912160
C        8.5135459687    6.2964371385  -14.9719866758
C        8.0586901245    7.2140140687  -13.8548977388
Cl       9.2996788279    8.4880140488  -13.4885622107
H        7.7428854293    5.5314237842  -15.1498294704
H        8.6747812826    6.8557131094  -15.9007315683
H        9.4558137562    5.7972462566  -14.7117907108
H        7.8966151465    6.6698914548  -12.9173731312
H        7.1387947478    7.7513716519  -14.1127355070
C        8.3459731659    9.5198085690  -16.9656552073
C        8.8443971727   10.6477656069  -17.8405815179
Cl       9.5174292634   12.0179424620  -16.8516707902
H        9.1567820948    9.1182557689  -16.3513482732
H        7.5373163033    9.8525518101  -16.3028864178
H        7.9592269398    8.7113624745  -17.6066086920
H        8.0481261160   11.0858430992  -18.4531819346
H        9.6620857338   10.3253390846  -18.4959207303
C       13.0584741493    6.7685956932  -18.6658582165
C       12.2171881398    8.0185340067  -18.5042325697
Cl      11.7882576378    8.3241405667  -16.7811237666
H       12.5044184906    5.8731786841  -18.3520115529
H       13.3389364535    6.6516340850  -19.7254171054
H       13.9785850745    6.8309125640  -18.0693553113
H       11.2694612198    7.9390969671  -19.0545713574
H       12.7445061134    8.9116878908  -18.8625275857
24   
Iteration 10 Energy -1617.78944241
C        8.5588059195    6.2852853191  -14.9978067540
C        8.1193794763    7.2363008525  -13.9029701577
Cl       9.3778452407    8.5026625008  -13.5685708898
H        7.7703936896    5.5349465987  -15.1639879558
H        8.7357167342    6.8186794646  -15.9387596663
H        9.4850977974    5.7659297451  -14.7209309305
H        7.9543822783    6.7172522323  -12.9520476110
H        7.2049479685    7.7782370770  -14.1712989783
C        8.3144781737    9.5352241138  -16.9395664731
C        8.8647384162   10.6264994563  -17.8308259692
Cl       9.5350115056   12.0101576239  -16.8578013784
H        9.0991187910    9.1394285476  -16.2894406061
H        7.4970057564    9.9072461031  -16.3092971043
H        7.9311867321    8.7166709977  -17.5686193886
H        8.0985748668   11.0640776647  -18.4806234261
H        9.6966410415   10.2660528603  -18.4468229217
C       13.0299976937    6.7798628883  -18.6538276322
C       12.1524339212    8.0075621703  -18.4748447245
Cl      11.6886468320    8.2543550883  -16.7574347634
H       12.4841365989    5.8656200769  -18.3839991852
H       13.3426037766    6.7082269930  -19.7072193614
H       13.9267609152    6.8451737612  -18.0237477097
H       11.2194462387    7.9145506370  -19.0478587178
H       12.6646189888    8.9207580770  -18.8025557372
24   
Iteration 11 Energy -1617.78987873
C        8.6870754126    6.2580372529  -15.0571911923
C        8.2902348323    7.2846419385  -14.0168979642
Cl       9.6063056090    8.5081846584  -13.7313344020
H        7.8516129725    5.5530920661  -15.2015274965
H        8.9072052096    6.7275710268  -16.0226783281
H        9.5659355160    5.6854295511  -14.7360969239
H        8.1034313300    6.8246962295  -13.0407572481
H        7.4019189358    7.8534332654  -14.3174871898
C        8.2096992223    9.5913077944  -16.8911302899
C        8.9106456857   10.5711809956  -17.8083526467
Cl       9.5813285149   11.9848097617  -16.8776422744
H        8.9093223549    9.2137439460  -16.1418926756
H        7.3733216997   10.0693855786  -16.3655896054
H        7.8326229209    8.7470043191  -17.4869164205
H        8.2382584988   11.0019992311  -18.5579522809
H        9.7697462174   10.1086482376  -18.3060519247
C       12.9581830716    6.8118228196  -18.6233209541
C       11.9886773591    7.9716216997  -18.4048992578
Cl      11.4358910172    8.0563194754  -16.7006957393
H       12.4440157578    5.8537915810  -18.4742613119
H       13.3483485276    6.8604423087  -19.6488840217
H       13.7918334305    6.8741049861  -17.9132024004
H       11.0924015277    7.8533957148  -19.0273952346
H       12.4539537302    8.9360964217  -18.6387002608
24   
Iteration 12 Energy -1617.79038344
C        8.6569631351    6.2574639212  -15.0320704045
C        8.2502740738    7.2631604890  -13.9755989692
Cl       9.5614041028    8.4858392737  -13.6574938948
H        7.8303200362    5.5440778799  -15.1838312323
H        8.8684250063    6.7444503419  -15.9907709159
H        9.5446354273    5.6921405409  -14.7221401075
H        8.0577615182    6.7863761401  -13.0088559837
H        7.3646000204    7.8374982948  -14.2728917596
C        8.2133497402    9.5915098579  -16.9092636228
C        8.8919069218   10.5911822051  -17.8220184238
Cl       9.5631072765   11.9972643964  -16.8813854716
H        8.9278744181    9.2076503776  -16.1762807089
H        7.3790994903   10.0535458177  -16.3659451572
H        7.8339520536    8.7523877782  -17.5115573001
H        8.2041654873   11.0248508849  -18.5560333508
H        9.7479192574   10.1449826816  -18.3391723823
C       12.9859852121    6.8000224261  -18.6426202173
C       12.0458619416    7.9810116770  -18.4311617771
Cl      11.5059860361    8.0976023357  -16.7127418808
H       12.4648824308    5.8550401731  -18.4440215897
H       13.3395671128    6.8046138454  -19.6827365787
H       13.8486478249    6.8718592705  -17.9689542029
H       11.1367553801    7.8805859619  -19.0358016574
H       12.5285254502    8.9356442867  -18.6675104544
24   
Iteration 13 Energy -1617.79095235
C        8.6911960837    6.2364197660  -15.0256032820
C        8.3007352916    7.2553452128  -13.9771221210
Cl       9.6481179116    8.4351376135  -13.6361849521
H        7.8471778128    5.5444058530  -15.1793892948
H        8.9240561693    6.7143301442  -15.9840779808
H        9.5618863832    5.6501216736  -14.7061530935
H        8.0756995827    6.7891731422  -13.0125345423
H        7.4438983641    7.8627870155  -14.2920868903
C        8.1464050772    9.6362272561  -16.9080870969
C        8.8924801546   10.5825284285  -17.8250500237
Cl       9.5693252513   11.9990664008  -16.9054989901
H        8.8184539232    9.2543997065  -16.1329283961
H        7.3033693040   10.1419531958  -16.4194127705
H        7.7640710026    8.7876572847  -17.4959957867
H        8.2486823756   11.0092025769  -18.6021181887
H        9.7549403573   10.0944286111  -18.2901086175
C       12.9825825761    6.8079383547  -18.6524165280
C       12.0319294522    7.9729543422  -18.4317566037
Cl      11.4451335010    8.0386939905  -16.7104828465
H       12.4784656015    5.8535135521  -18.4569715732
H       13.3298208031    6.8175069237  -19.6948188795
H       13.8524359110    6.8882219047  -17.9891647432
H       11.1307624837    7.8883453125  -19.0473180010
H       12.5103439811    8.9404025998  -18.6155768416
24   
Iteration 14 Energy -1617.79122884
C        8.7055068882    6.2134713611  -15.0151098113
C        8.3314441713    7.2464691943  -13.9741777388
Cl       9.7091580872    8.3875213730  -13.6265069110
H        7.8488945232    5.5392402760  -15.1712013442
H        8.9603007378    6.6846767572  -15.9714880894
H        9.5656053761    5.6149427519  -14.6885696957
H        8.0774872168    6.7915446697  -13.0110666443
H        7.4995060689    7.8800465158  -14.3028736236
C        8.0979331963    9.6733334279  -16.8971746754
C        8.8956545556   10.5694843716  -17.8194003101
Cl       9.5787735255   12.0018251821  -16.9305189796
H        8.7303466871    9.2941596735  -16.0867748452
H        7.2471211516   10.2121029651  -16.4601197591
H        7.7114069250    8.8157759640  -17.4705148268
H        8.2871458296   10.9826810252  -18.6319883312
H        9.7600767405   10.0473402945  -18.2422632986
C       12.9825318239    6.8193078097  -18.6624248573
C       12.0303308577    7.9744098599  -18.4420604900
Cl      11.4035435723    8.0147143079  -16.7288853924
H       12.4922680131    5.8578786164  -18.4627462256
H       13.3234362530    6.8228131321  -19.7087689446
H       13.8625460765    6.9052926288  -18.0124054434
H       11.1403289224    7.9053169739  -19.0762352193
H       12.5106221552    8.9464117324  -18.5975825872
24   
Iteration 15 Energy -1617.79137498
C        8.7065382756    6.1964500754  -15.0057393252
C        8.3442929972    7.2402826613  -13.9703327160
Cl       9.7412352491    8.3542413689  -13.6193352956
H        7.8427499395    5.5329923275  -15.1638232758
H        8.9754526115    6.6615840376  -15.9613158629
H        9.5595192606    5.5906589769  -14.6733814268
H        8.0720947127    6.7935755182  -13.0081866760
H        7.5273722056    7.8887028529  -14.3070205394
C        8.0704736324    9.6959190285  -16.8836420755
C        8.9008318426   10.5544919099  -17.8115424182
Cl       9.5901552764   12.0000342391  -16.9497135970
H        8.6774990406    9.3268391246  -16.0497298193
H        7.2158832650   10.2563555543  -16.4827531271
H        7.6830200495    8.8295813548  -17.4435096671
H        8.3150623851   10.9545657117  -18.6471582676
H        9.7643780987   10.0075280121  -18.2038160228
C       12.9850716831    6.8295547421  -18.6716439260
C       12.0333914203    7.9827442123  -18.4583807171
Cl      11.3869816992    8.0193247793  -16.7537898760
H       12.4971037295    5.8665622304  -18.4708777597
H       13.3284773614    6.8290879774  -19.7184008399
H       13.8658882191    6.9162169489  -18.0221305254
H       11.1519591320    7.9186102667  -19.1067182316
H       12.5165372687    8.9548569554  -18.6079160564
24   
Iteration 16 Energy -1617.79153185
C        8.7038569118    6.1709702703  -14.9924221934
C        8.3591184190    7.2325655737  -13.9681615075
Cl       9.7813604180    8.3099137578  -13.6155197118
H        7.8285520239    5.5238452424  -15.1521018452
H        8.9915396101    6.6231968657  -15.9490224415
H        9.5429469391    5.5521669212  -14.6483535801
H        8.0635623366    6.8002692886  -13.0060933013
H        7.5618219377    7.8983960446  -14.3173034946
C        8.0340776780    9.7281773410  -16.8561200352
C        8.9110064444   10.5251769831  -17.7954705662
Cl       9.6112234058   11.9922715050  -16.9805552919
H        8.6062124472    9.3856624703  -15.9868965722
H        7.1780219675   10.3220636400  -16.5104395797
H        7.6467849863    8.8449830602  -17.3890034006
H        8.3593424608   10.9002250914  -18.6650979305
H        9.7709906765    9.9396408079  -18.1354775306
C       12.9912662553    6.8461964009  -18.6886209956
C       12.0378303743    8.0004744663  -18.4891505375
Cl      11.3660633266    8.0361266281  -16.7995000423
H       12.5000751384    5.8838760114  -18.4902941388
H       13.3461301504    6.8430924417  -19.7322322581
H       13.8649583725    6.9321954475  -18.0291502741
H       11.1701333536    7.9376933822  -19.1580140675
H       12.5250937220    8.9715812288  -18.6358567486
24   
Iteration 17 Energy -1617.79161386
C        8.6902274162    6.1633016798  -14.9857069713
C        8.3469142581    7.2292201811  -13.9655767491
Cl       9.7704826253    8.3054967075  -13.6176167323
H        7.8129840645    5.5181877453  -15.1449176859
H        8.9792926542    6.6116101342  -15.9438656222
H        9.5255007409    5.5417006452  -14.6375378586
H        8.0500641835    6.8004223303  -13.0021795099
H        7.5498999898    7.8940839476  -14.3173119581
C        8.0332595607    9.7343014311  -16.8391531805
C        8.9111807336   10.5166383479  -17.7905608281
Cl       9.6133270763   11.9942757268  -16.9963362613
H        8.6061674982    9.4067793909  -15.9644356623
H        7.1780792306   10.3340694621  -16.5016212972
H        7.6474953260    8.8426278552  -17.3583893296
H        8.3607018436   10.8797909162  -18.6657394787
H        9.7701884046    9.9237949162  -18.1186995019
C       13.0024047694    6.8492654609  -18.7007873603
C       12.0527223997    8.0105988542  -18.5061980559
Cl      11.3837938381    8.0520448157  -16.8188114177
H       12.5035900308    5.8921844444  -18.4971786686
H       13.3581357615    6.8405036991  -19.7433958604
H       13.8736506585    6.9343511576  -18.0382083417
H       11.1867518082    7.9473236030  -19.1774356228
H       12.5451544835    8.9781874190  -18.6591940907
24   
Iteration 18 Energy -1617.79169263
C        8.6801627799    6.1554279371  -14.9836204116
C        8.3390670674    7.2290730029  -13.9715053717
Cl       9.7645424186    8.3059956431  -13.6297480991
H        7.7977875879    5.5159739525  -15.1423919103
H        8.9729707434    6.5949451546  -15.9448643292
H        9.5058394093    5.5261191449  -14.6270329362
H        8.0426868791    6.8074607233  -13.0048285055
H        7.5424702159    7.8921674806  -14.3281254487
C        8.0303125196    9.7457682919  -16.8118871884
C        8.9109996469   10.5019676772  -17.7831908210
Cl       9.6151411902   11.9970650616  -17.0232055347
H        8.6047931318    9.4450956013  -15.9281948753
H        7.1773564992   10.3569045319  -16.4892502140
H        7.6467340903    8.8396260647  -17.3063269983
H        8.3629381290   10.8447935525  -18.6677015569
H        9.7692027202    9.8979407700  -18.0906319512
C       13.0150860138    6.8533128634  -18.7162390758
C       12.0619897059    8.0170422619  -18.5219390794
Cl      11.3939918578    8.0530098037  -16.8358944785
H       12.5089629454    5.8985356864  -18.5228481701
H       13.3818252938    6.8528832538  -19.7535802946
H       13.8754979329    6.9346236417  -18.0398260531
H       11.1972844326    7.9506194521  -19.1934899671
H       12.5543261455    8.9844093202  -18.6745347745
24   
Iteration 19 Energy -1617.79174734
C        8.6675561017    6.1505645995  -14.9819947722
C        8.3257303105    7.2283471123  -13.9753021029
Cl       9.7502500602    8.3097097280  -13.6392964058
H        7.7823135279    5.5146545118  -15.1416723484
H        8.9640182294    6.5852704096  -15.9443460948
H        9.4873232505    5.5170415236  -14.6194838933
H        8.0317520644    6.8112865011  -13.0059450535
H        7.5280946649    7.8886069395  -14.3348632316
C        8.0330570941    9.7558300663  -16.7860120335
C        8.9060572033   10.4934660102  -17.7789990890
Cl       9.6097763648   12.0063410710  -17.0536385592
H        8.6145558645    9.4767727938  -15.8994566617
H        7.1809713445   10.3720208572  -16.4707860698
H        7.6501856031    8.8374687948  -17.2577476426
H        8.3524058555   10.8162435117  -18.6674960970
H        9.7646160829    9.8852352331  -18.0761926620
C       13.0300822681    6.8542664852  -18.7314570940
C       12.0762120427    8.0184799302  -18.5331879594
Cl      11.4080764271    8.0474692102  -16.8461135486
H       12.5214928301    5.8995852079  -18.5458986867
H       13.4012334238    6.8603891636  -19.7664800636
H       13.8866950615    6.9316632264  -18.0500587103
H       11.2108532390    7.9538036868  -19.2030625061
H       12.5686604423    8.9862443019  -18.6813667596
24   
Iteration 20 Energy -1617.79184365
C        8.6498822082    6.1387891010  -14.9804642295
C        8.3116075203    7.2272072663  -13.9847851137
Cl       9.7427394475    8.3032280596  -13.6520957394
H        7.7560375733    5.5160056487  -15.1462549058
H        8.9624907321    6.5625406874  -15.9426610046
H        9.4536821375    5.4931273981  -14.6040974820
H        8.0141325641    6.8213007562  -13.0118984281
H        7.5195447160    7.8895311115  -14.3527306548
C        8.0282306752    9.7879683659  -16.7306650712
C        8.8967051522   10.4685668300  -17.7677382817
Cl       9.6028193063   12.0203189666  -17.1302234496
H        8.6142182637    9.5591260645  -15.8325534612
H        7.1769633646   10.4204570369  -16.4468784794
H        7.6451083925    8.8435003961  -17.1475054487
H        8.3393289281   10.7416005604  -18.6703968673
H        9.7546321319    9.8446831440  -18.0318498553
C       13.0575394663    6.8608388225  -18.7622963066
C       12.0957855163    8.0170197534  -18.5543608479
Cl      11.4158630833    8.0192949409  -16.8681246635
H       12.5499617133    5.9003157818  -18.6082118540
H       13.4466239167    6.8925933951  -19.7898060699
H       13.9020262119    6.9266755565  -18.0648889569
H       11.2328537479    7.9563749790  -19.2264761008
H       12.5831925885    8.9896962588  -18.6838947742
24   
Iteration 21 Energy -1617.79195811
C        8.6283767780    6.1240733835  -14.9798089349
C        8.2972652215    7.2254337175  -13.9963322332
Cl       9.7412692377    8.2850855536  -13.6613925903
H        7.7234356708    5.5210669424  -15.1577132072
H        8.9675195073    6.5348604461  -15.9387318862
H        9.4105803210    5.4625275839  -14.5859244341
H        7.9894377635    6.8329345083  -13.0212637914
H        7.5170669531    7.8952155619  -14.3753990587
C        8.0189331821    9.8399497884  -16.6576529246
C        8.8793996945   10.4340538259  -17.7524155195
Cl       9.5892979198   12.0336021156  -17.2486870955
H        8.6104600720    9.6800648675  -15.7483163919
H        7.1682731096   10.4918808668  -16.4197573622
H        7.6333194789    8.8650676494  -16.9952694218
H        8.3154169838   10.6331283726  -18.6701887692
H        9.7360463761    9.7910536441  -17.9706802292
C       13.0953708245    6.8705862690  -18.8041857801
C       12.1207721217    8.0096169718  -18.5769508336
Cl      11.4197922973    7.9595755888  -16.8947634122
H       12.5957644643    5.8996956917  -18.6954526528
H       13.5050981873    6.9412065850  -19.8221292860
H       13.9270519471    6.9191331657  -18.0899967100
H       11.2636686060    7.9598749306  -19.2568448768
H       12.5983526412    8.9910728596  -18.6710006456
24   
Iteration 22 Energy -1617.79204705
C        8.6151841354    6.1109995873  -14.9816275147
C        8.2964077796    7.2242208906  -14.0069780813
Cl       9.7591135152    8.2537268911  -13.6612228422
H        7.6990762101    5.5305601896  -15.1742025870
H        8.9836057183    6.5099441170  -15.9347843891
H        9.3750238043    5.4326502496  -14.5725907111
H        7.9696965824    6.8434706652  -13.0333807952
H        7.5349244097    7.9085301957  -14.3973188978
C        8.0024739392    9.8980131396  -16.5944972604
C        8.8622589610   10.3963242214  -17.7356402262