51   
Iteration 0 Energy -1457.23087407
C        9.4161963900    2.5061023200   11.5442641500
C       10.3077893300    3.7287495700   11.6501515500
O        9.4761041200    4.8889371400   11.4942865800
C       10.0502340100    6.0198934400   11.1953339100
O       11.2483026400    6.1887726300   11.0562221900
O        9.1509934000    6.9713453400   11.0929635500
C        9.6331288900    8.2953764700   10.8703505000
H       10.0086378700    1.6086683600   11.6930620600
H        8.9473108100    2.4682294000   10.5655163200
H        8.6362737200    2.5469065300   12.2991628600
H       10.7891566100    3.7808743100   12.6322597800
H       11.0805645800    3.7368677400   10.8751601500
H       10.2723846200    8.3321057000    9.9881168600
H       10.1955820900    8.6403598000   11.7393587000
H        8.7440639700    8.9058823400   10.7353360000
C        7.2598250200    5.9605214200    8.2133144600
C        8.3823754500    6.5904661800    7.4072988100
O        9.1831848900    5.6060300100    6.7233113500
C        9.9393621700    4.8146300000    7.4516599700
O       10.1353178300    4.9327350900    8.6413700600
O       10.4566717700    3.8761211800    6.6930056500
C       11.2776878800    2.8999533600    7.3409434100
H        7.6577757300    5.3965329600    9.0532209300
H        6.6655587700    5.3023222500    7.5842095300
H        6.6186581300    6.7469458900    8.5999080000
H        7.9900527600    7.2043659500    6.5951111500
H        9.0296122600    7.1921247000    8.0501331700
H       12.1376657100    3.3742488300    7.8125899200
H       11.5889272900    2.2202246000    6.5520433100
H       10.7000638100    2.3637358500    8.0940162700
C       14.7344185800    6.1966506600   12.0396220200
C       14.4948831400    7.4035323100   11.1131509300
O       13.8766921600    6.8216954300    9.9699124600
C       13.6935749500    5.5311677600   10.1696379400
O       13.1338745000    4.8263159600    9.3748153200
O       14.1885200100    5.1050414000   11.3075119300
H       14.2009288100    6.2723484000   12.9895879600
H       15.7927001100    5.9947434200   12.2241315800
H       15.4178696100    7.8958449700   10.7973885700
H       13.8081247200    8.1375836100   11.5387638100
C       11.6768398200    7.1629742000    4.7552044700
C       12.4643858500    5.9247101800    5.2208937500
O       12.3705885400    5.9911459700    6.6421428000
C       11.6633874200    7.0447587000    6.9930425900
O       11.4186369900    7.3231354000    8.1350441200
O       11.2477849000    7.7595709300    5.9727156600
H       10.7916461000    6.9118965400    4.1661391600
H       12.2878949900    7.8883062700    4.2124464600
H       13.5206111000    5.9524656500    4.9429380700
H       12.0158689700    4.9847875900    4.8904881600
Li      11.5654047400    5.8606693700    9.2581476000
51   
Iteration 1 Energy -1457.23831441
C        9.4213536154    2.4979563620   11.5475747442
C       10.2681969311    3.7457430648   11.6903994795
O        9.3884522696    4.8920234848   11.6162613046
C        9.9383852240    6.0501529670   11.3549853988
O       11.1472193114    6.1977744379   11.2217776899
O        9.0610944431    7.0198201714   11.2012231880
C        9.6068898729    8.3126154747   10.8952160180
H       10.0589127648    1.6117312971   11.6300436046
H        8.9183229799    2.4878276921   10.5745107252
H        8.6601909417    2.4621801309   12.3329175652
H       10.7869437476    3.7746732868   12.6562299807
H       11.0134099965    3.8190408726   10.8901970274
H       10.2364573151    8.2593037069   10.0006759437
H       10.2031671657    8.6810783295   11.7365863808
H        8.7499363898    8.9650961182   10.7248133485
C        7.1992431309    5.9867788711    8.2236429940
C        8.3440805704    6.5412922924    7.3983304974
O        9.0930678760    5.5046254168    6.7049755063
C        9.8319761235    4.6701075717    7.4111590923
O       10.0391347437    4.7642029694    8.6092716164
O       10.3885252303    3.7560017820    6.6458665739
C       11.2886078183    2.8507077634    7.3094245288
H        7.5725442402    5.4077330297    9.0726942740
H        6.5525456179    5.3558629879    7.6055275305
H        6.6083139099    6.8233806404    8.6109476918
H        7.9810793361    7.1739787940    6.5842742244
H        9.0376384561    7.1155783114    8.0208342413
H       12.1200142665    3.4077873456    7.7536032883
H       11.6463897035    2.1714887792    6.5354632764
H       10.7585748973    2.2987747291    8.0913386153
C       14.7760298470    6.2037079203   12.0716593210
C       14.5267672487    7.4024386098   11.1314389898
O       13.9352038117    6.7865348957    9.9798593148
C       13.7734634707    5.4799335960   10.1742179388
O       13.2262614580    4.7467570051    9.3821940941
O       14.2596846466    5.0866152189   11.3360209756
H       14.2257195623    6.2787052443   13.0147211902
H       15.8354395389    6.0187367678   12.2721522929
H       15.4433819838    7.9125945954   10.8191956697
H       13.8187624009    8.1302385467   11.5419190945
C       11.6965153004    7.1880740113    4.6896774149
C       12.4798979394    5.9543423631    5.1865772732
O       12.3986130416    6.0828413804    6.6144117552
C       11.7076838587    7.1666718851    6.9512645223
O       11.4723118446    7.4887669705    8.0927119221
O       11.2856302963    7.8395027801    5.8984273596
H       10.8007692225    6.9238085030    4.1195235434
H       12.3077256520    7.8927332020    4.1197377683
H       13.5364005368    5.9586922110    4.9017360358
H       12.0191601430    5.0052536636    4.8932482615
Li      11.4954795191    5.6756118598    9.2320840921
51   
Iteration 2 Energy -1457.24084325
C        9.3816926692    2.4927318507   11.5519802302
C       10.2246800978    3.7289600696   11.7567345576
O        9.3568374516    4.8961120596   11.6509110729
C        9.9223381313    6.0414256138   11.3357787663
O       11.1025593186    6.2251404867   11.0192398787
O        9.0302543513    7.0130823824   11.2800583956
C        9.5369307932    8.3220647563   10.9271472730
H       10.0193380584    1.5984945584   11.6640053652
H        8.9442411239    2.4913050811   10.5376531859
H        8.5638835078    2.4363419621   12.2888254058
H       10.7014350367    3.7643130115   12.7463329907
H       11.0111118418    3.7961047886   10.9979123232
H       10.0863964737    8.2778114398    9.9769574456
H       10.2027014360    8.6920263522   11.7197244691
H        8.6591748769    8.9691953303   10.8327636839
C        7.1243858186    5.9453962524    8.1882196697
C        8.3147359517    6.5171301128    7.4455749231
O        9.0796495775    5.4854263465    6.7368404785
C        9.8608259469    4.6744409630    7.4242567726
O       10.1483311070    4.8653132624    8.6084272759
O       10.3479266470    3.7076450935    6.6679728909
C       11.2665436698    2.7734665795    7.2869773404
H        7.4348818068    5.3160795570    9.0348832353
H        6.4892943701    5.3576080647    7.5041608334
H        6.5252208258    6.7828986637    8.5861583377
H        8.0014529026    7.1898355363    6.6409909803
H        9.0034874615    7.0601474021    8.1039072479
H       12.1499243594    3.3044714024    7.6653172865
H       11.5476860006    2.0729357441    6.4946983167
H       10.7625100084    2.2469236161    8.1089033988
C       14.8381704530    6.2133130225   12.1321695434
C       14.5717904727    7.3997855125   11.1730009533
O       13.9928875167    6.7541804507   10.0196315572
C       13.8452385475    5.4384339916   10.2279737473
O       13.2320720955    4.7238563945    9.4539641786
O       14.3398225613    5.0683472741   11.4031342700
H       14.2758833304    6.2875978694   13.0707356698
H       15.9003453317    6.0477436287   12.3424469365
H       15.4794663702    7.9255214469   10.8542268153
H       13.8425373771    8.1216194136   11.5637358456
C       11.7098006699    7.2239556976    4.6248948471
C       12.4891841467    5.9793834258    5.1203643229
O       12.4246977412    6.1165527233    6.5582291536
C       11.7465031341    7.2173572310    6.9106027043
O       11.5041170792    7.4403557071    8.0821748331
O       11.3208205399    7.8955280333    5.8500613532
H       10.8000175426    6.9624037173    4.0717623311
H       12.3217491546    7.9159637558    4.0371444232
H       13.5451330437    5.9673721784    4.8270816378
H       12.0141999772    5.0290170304    4.8499522219
Li      11.5929828493    5.9480867564    9.1132140776
51   
Iteration 3 Energy -1457.24189210
C        9.3704609992    2.4991428751   11.5522531468
C       10.2323934011    3.7220474138   11.7543813805
O        9.3836147658    4.9009215826   11.6311539511
C        9.9546504343    6.0394692288   11.3072811173
O       11.1336030666    6.2217198478   10.9877552864
O        9.0502067017    7.0019715908   11.2683472446
C        9.5215055353    8.3252434644   10.9273728671
H        9.9908759618    1.5967185563   11.6784125646
H        8.9449751483    2.4959776868   10.5349368261
H        8.5445944864    2.4606046991   12.2792202661
H       10.6989269254    3.7591471283   12.7485991714
H       11.0271766050    3.7718047905   11.0039968625
H       10.0629350128    8.3075099048    9.9736282646
H       10.1830203799    8.6999796836   11.7199827033
H        8.6253668546    8.9480735435   10.8507872516
C        7.1175372977    5.9584649570    8.1936296041
C        8.2983619869    6.5103873072    7.4227525037
O        9.0822007032    5.4609216563    6.7659683215
C        9.8690525678    4.6816975105    7.4816489857
O       10.2042154568    4.7936150223    8.6656691507
O       10.3317583843    3.7286335370    6.6984643982
C       11.2648119519    2.7870535303    7.2802521041
H        7.4404728462    5.3808463296    9.0708226712
H        6.4893161236    5.3260906098    7.5466162360
H        6.5064099411    6.8048569331    8.5485662211
H        7.9785103706    7.1365185757    6.5834200778
H        8.9756354476    7.0952403789    8.0538840231
H       12.1577276908    3.3154741372    7.6362767263
H       11.5194211249    2.0962370372    6.4716313232
H       10.7848440281    2.2537387713    8.1107600460
C       14.8400923793    6.2124049461   12.1356243652
C       14.5727953410    7.3980418035   11.1771898317
O       13.9892828889    6.7583626461   10.0247684572
C       13.8381498250    5.4450651045   10.2368337435
O       13.2204444250    4.7425905256    9.4609218245
O       14.3370727043    5.0686389765   11.4078834931
H       14.2806404749    6.2857714202   13.0753524140
H       15.9029013780    6.0468568056   12.3428842399
H       15.4810760387    7.9211819969   10.8571435691
H       13.8454025989    8.1202584120   11.5676232169
C       11.7109529871    7.2253058328    4.6134991607
C       12.4870126034    5.9823719208    5.1117904248
O       12.4226274808    6.1215799153    6.5484610170
C       11.7443080987    7.2245719823    6.8965501283
O       11.4925716763    7.4753239118    8.0571752422
O       11.3239358718    7.9000899811    5.8356617587
H       10.7998245199    6.9668822800    4.0626548381
H       12.3243011825    7.9151841586    4.0251842675
H       13.5426229792    5.9697819882    4.8179843264
H       12.0112066869    5.0322440995    4.8449120048
Li      11.6936607738    5.7777063305    9.2696869922
51   
Iteration 4 Energy -1457.24544477
C        9.3729093415    2.5012519158   11.5523337104
C       10.2327735126    3.7259271549   11.7538091268
O        9.3804754962    4.9014228157   11.6329635066
C        9.9451055386    6.0413199111   11.3116750742
O       11.1264615818    6.2024489058   11.0024459331
O        9.0451079719    7.0074337120   11.2700078018
C        9.5216692032    8.3267360619   10.9285949794
H        9.9942630103    1.6008549564   11.6761349549
H        8.9454124753    2.4976570714   10.5375661946
H        8.5499626140    2.4608418392   12.2806260366
H       10.7000122332    3.7617716592   12.7472283764
H       11.0263744912    3.7802664323   11.0021839492
H       10.0634419462    8.3048951660    9.9757281711
H       10.1835145790    8.6996785632   11.7206640099
H        8.6278679623    8.9515767809   10.8508889030
C        7.1387406758    5.9450540482    8.1989456207
C        8.3127456175    6.5067825815    7.4263238352
O        9.0781803802    5.4670683018    6.7375417680
C        9.8572360594    4.6761921633    7.4435776145
O       10.1522604836    4.8211448275    8.6291480527
O       10.3362970262    3.7172241631    6.6772089180
C       11.2587103998    2.7848466538    7.2874007934
H        7.4697361517    5.3448856048    9.0570201635
H        6.4982194301    5.3334190031    7.5465847145
H        6.5392248926    6.7856260467    8.5820452394
H        7.9890078709    7.1552019681    6.6061801463
H        9.0020715617    7.0705773701    8.0636782343
H       12.1423549381    3.3185630276    7.6564913213
H       11.5306812706    2.0867086092    6.4916207913
H       10.7633223926    2.2592565941    8.1128689982
C       14.8417620881    6.2125621627   12.1361417246
C       14.5743172228    7.3970748717   11.1784828483
O       13.9929874427    6.7572348687   10.0265269880
C       13.8431247064    5.4447169641   10.2395138516
O       13.2331034172    4.7342392429    9.4696158562
O       14.3413737005    5.0695043506   11.4087444262
H       14.2819189787    6.2846031617   13.0751721792
H       15.9042500600    6.0478103941   12.3436511098
H       15.4824102210    7.9204950937   10.8594084453
H       13.8463987902    8.1183375432   11.5682200243
C       11.7108009627    7.2249428039    4.6139615735
C       12.4861200620    5.9823970037    5.1099194224
O       12.4229360169    6.1187411007    6.5454439758
C       11.7445312560    7.2203971406    6.8950217141
O       11.4894126395    7.4819820357    8.0496848469
O       11.3254223426    7.8970843721    5.8361404178
H       10.7991866122    6.9686763621    4.0637250675
H       12.3240697348    7.9154133537    4.0265110558
H       13.5411889773    5.9709100292    4.8150761651
H       12.0101806834    5.0329826983    4.8422171856
Li      11.6094607815    5.8401090271    9.2520930083
51   
Iteration 5 Energy -1457.24519296
C        9.3764014680    2.5064101156   11.5550940930
C       10.2282353708    3.7371161506   11.7563520096
O        9.3632629964    4.9032475571   11.6502797286
C        9.9139306702    6.0489866462   11.3402801656
O       11.1003242724    6.1936553616   11.0629873235
O        9.0214581256    7.0181794726   11.2860538977
C        9.5175800910    8.3258316378   10.9387317298
H       10.0038978840    1.6115814915   11.6658912620
H        8.9379976297    2.5046301430   10.5480377774
H        8.5645553186    2.4561835398   12.2916712783
H       10.7019558978    3.7664229621   12.7457567336
H       11.0148960315    3.8088504689   10.9978259161
H       10.0629331007    8.2865809482    9.9888379229
H       10.1806621330    8.6962429156   11.7289665664
H        8.6330189293    8.9600273800   10.8516417420
C        7.1551560034    5.9180832684    8.1852402116
C        8.3322542037    6.5111612408    7.4404711221
O        9.0845748904    5.4895831513    6.7151895253
C        9.8645566635    4.6853959495    7.4016228874
O       10.1735638197    4.8438436441    8.5738920004
O       10.3299594519    3.7115049191    6.6490436939
C       11.2388308116    2.7931271372    7.2951420031
H        7.4798241970    5.2800302698    9.0159244852
H        6.5186435047    5.3384156748    7.5034992735
H        6.5540373362    6.7377854085    8.6024803800
H        8.0091461062    7.1924095143    6.6481972411
H        9.0234415088    7.0467030699    8.1000877790
H       12.1185991327    3.3313992707    7.6642458155
H       11.5163056327    2.0724381115    6.5238421129
H       10.7285066009    2.2944992256    8.1269257168
C       14.8435494058    6.2117734864   12.1371287786
C       14.5769482694    7.3968863420   11.1837570134
O       13.9919482878    6.7630636686   10.0330913414
C       13.8361460198    5.4521376801   10.2448419312
O       13.2307087349    4.7373185800    9.4811531686
O       14.3392591671    5.0732034067   11.4089154233
H       14.2867229107    6.2815101147   13.0773897295
H       15.9060397967    6.0453586854   12.3413139707
H       15.4861882684    7.9174437149   10.8651117408
H       13.8519307273    8.1185202650   11.5755190160
C       11.7088887867    7.2253860066    4.6148374031
C       12.4827023076    5.9817744409    5.1047562305
O       12.4214695784    6.1063051003    6.5388680477
C       11.7416105074    7.2029992089    6.8923364244
O       11.4894735800    7.4652108141    8.0446503401
O       11.3250012568    7.8893419914    5.8396853923
H       10.7966317910    6.9746361208    4.0641213836
H       12.3228639897    7.9179399340    4.0306057031
H       13.5368972569    5.9737998604    4.8084984904
H       12.0067460664    5.0342948433    4.8328288017
Li      11.6734056380    5.8523474278    9.1203600710
51   
Iteration 6 Energy -1457.24680594
C        9.3673862241    2.5107680199   11.5558966642
C       10.2340528528    3.7318466464   11.7538498504
O        9.3831425580    4.9064527517   11.6401737720
C        9.9400883778    6.0501127457   11.3279431636
O       11.1253313304    6.2236369160   11.0559335892
O        9.0342466818    7.0074654120   11.2798376537
C        9.5066756656    8.3250610466   10.9404425937
H        9.9826908444    1.6087543565   11.6730174966
H        8.9321530790    2.5093355907   10.5479381808
H        8.5530203201    2.4741079669   12.2901102029
H       10.7033849166    3.7592218417   12.7455375091
H       11.0240997566    3.7928890560   10.9983774074
H       10.0511063911    8.3019065096    9.9899762725
H       10.1638411898    8.7014996707   11.7326275957
H        8.6103361962    8.9433120822   10.8597268038
C        7.1616136347    5.9196804979    8.1912102893
C        8.3308184897    6.5065544060    7.4307403013
O        9.0804245505    5.4809669085    6.7093490613
C        9.8606929247    4.6826743581    7.4035938812
O       10.1566552610    4.8453863097    8.5817229613
O       10.3311969775    3.7100115568    6.6504975698
C       11.2418782321    2.7888123641    7.2899203728
H        7.4969329533    5.2907409444    9.0245303802
H        6.5189034015    5.3327018525    7.5227399783
H        6.5639486342    6.7422867447    8.6068167257
H        8.0029641012    7.1808285157    6.6342751080
H        9.0253926160    7.0469768650    8.0818787665
H       12.1215934199    3.3257286312    7.6601841771
H       11.5175509347    2.0727368661    6.5135307840
H       10.7342114708    2.2849856144    8.1197452040
C       14.8469298592    6.2115927835   12.1409501976
C       14.5792540476    7.3963924388   11.1878869381
O       13.9929190411    6.7633148201   10.0376316924
C       13.8358563915    5.4528474714   10.2508593773
O       13.2326807146    4.7384758509    9.4836708900
O       14.3419766229    5.0727223495   11.4134811156
H       14.2913558080    6.2807876767   13.0818919981
H       15.9097717024    6.0455657767   12.3436483111
H       15.4886227398    7.9162875859   10.8686535970
H       13.8547542939    8.1180572064   11.5800641423
C       11.7082799839    7.2267972971    4.6101832657
C       12.4809464247    5.9822586105    5.0991184439
O       12.4203504565    6.1046129497    6.5332983629
C       11.7401601298    7.2010177090    6.8859977646
O       11.4935583056    7.4625388865    8.0403854544
O       11.3251084528    7.8905798362    5.8351891604
H       10.7953335094    6.9781956639    4.0598411169
H       12.3229467757    7.9192270976    4.0266059198
H       13.5349349583    5.9746096634    4.8023859501
H       12.0043287004    5.0353992205    4.8265102078
Li      11.6368708010    5.8599334958    9.1814330562
51   
Iteration 7 Energy -1457.24700918
C        9.3705300764    2.5094322869   11.5538202048
C       10.2255386870    3.7385585807   11.7502767739
O        9.3647494158    4.9051089162   11.6341473234
C        9.9107695828    6.0512127448   11.3090658641
O       11.1036028388    6.1834156363   11.0384835965
O        9.0163832516    7.0223926328   11.2746305241
C        9.4950120352    8.3383242697   10.9377377472
H        9.9929953869    1.6127822164   11.6758676823
H        8.9389455067    2.5010610525   10.5441984175
H        8.5546033348    2.4678566093   12.2861199043
H       10.6893761245    3.7729008009   12.7449024644
H       11.0170050595    3.8081890759   10.9969710084
H       10.0317954113    8.3183049566    9.9829945007
H       10.1611961423    8.7050154977   11.7273924742
H        8.6021337133    8.9635258101   10.8701545302
C        7.1671518902    5.9214814736    8.1990338966
C        8.3236717422    6.5022719486    7.4155433563
O        9.0777258301    5.4678294603    6.7108086938
C        9.8681503652    4.6876245785    7.4176541842
O       10.1592314124    4.8490903434    8.6012247912
O       10.3393167702    3.7170289008    6.6606080208
C       11.2524528123    2.7850060026    7.2814754267
H        7.5191459451    5.3129305403    9.0407925499
H        6.5216614814    5.3154154347    7.5506958036
H        6.5666551571    6.7463568489    8.6063029902
H        7.9863412981    7.1580863679    6.6073496512
H        9.0185112737    7.0584448099    8.0520166642
H       12.1362498950    3.3139158553    7.6530447567
H       11.5182855223    2.0782325427    6.4925702521
H       10.7491650227    2.2707023798    8.1075256963
C       14.8607503485    6.2104455435   12.1554060521
C       14.5898404967    7.3961600004   11.2046178013
O       13.9969606776    6.7650090045   10.0561441481
C       13.8339143642    5.4551617634   10.2713175856
O       13.2339695154    4.7417675211    9.4980990075
O       14.3511501638    5.0717296820   11.4290063042
H       14.3096738787    6.2785915810   13.0991838367
H       15.9245180158    6.0433233802   12.3528284107
H       15.4990183414    7.9144784088   10.8820136658
H       13.8678469355    8.1183376533   11.6006233425
C       11.7057098068    7.2316354162    4.5982004800
C       12.4754979012    5.9808148892    5.0735332990
O       12.4174174997    6.0892924704    6.5095415386
C       11.7377208015    7.1820386167    6.8760865809
O       11.5028010304    7.4428850335    8.0349366135
O       11.3282875527    7.8856969681    5.8318030818
H       10.7895007892    6.9922694258    4.0489520043
H       12.3209521998    7.9276521556    4.0193385742
H       13.5287499724    5.9746105090    4.7739730159
H       11.9957134018    5.0378892302    4.7926098642
Li      11.6121001456    5.8818172266    9.2745179326
51   
Iteration 8 Energy -1457.24790408
C        9.3634145346    2.5148981224   11.5545471174
C       10.2245502513    3.7397356821   11.7512479526
O        9.3679538308    4.9099319884   11.6379056847
C        9.9166972486    6.0545209797   11.3141946222
O       11.1050261508    6.2248243410   11.0485850746
O        9.0131293565    7.0143462939   11.2805960434
C        9.4829646601    8.3333521541   10.9426843175
H        9.9815328875    1.6151439548   11.6749822390
H        8.9301470519    2.5089616444   10.5457707248
H        8.5488613025    2.4768875052   12.2883481214
H       10.6884869783    3.7702646295   12.7457322332
H       11.0154025291    3.8079515406   10.9972332341
H       10.0191510360    8.3156786660    9.9872109995
H       10.1475996572    8.7050017303   11.7312128113
H        8.5861542203    8.9526455590   10.8753464576
C        7.1709191571    5.9148374862    8.1976657886
C        8.3277097069    6.5009119736    7.4176399290
O        9.0752479636    5.4681373117    6.7030123496
C        9.8671244908    4.6825847897    7.4020020098
O       10.1592145576    4.8444568584    8.5819887356
O       10.3386154422    3.7104901929    6.6486384090
C       11.2506976671    2.7860759118    7.2819146932
H        7.5221392195    5.2963285424    9.0322291699
H        6.5232887869    5.3174128366    7.5433063749
H        6.5724990999    6.7359327166    8.6152129695
H        7.9899345906    7.1650370950    6.6167267978
H        9.0263183254    7.0489688510    8.0576159963
H       12.1303705836    3.3205004812    7.6557607239
H       11.5232632902    2.0737365033    6.5007363439
H       10.7433033983    2.2771776058    8.1089441405
C       14.8676762816    6.2096882708   12.1622321039
C       14.5952060953    7.3961355180   11.2130195311
O       13.9990025778    6.7662058487   10.0657621679
C       13.8344574895    5.4565025465   10.2811870617
O       13.2346786799    4.7438051701    9.5084802297
O       14.3559018456    5.0717377407   11.4363075955
H       14.3186708542    6.2774478339   13.1072372623
H       15.9316550449    6.0415212976   12.3572190535
H       15.5038122767    7.9141442225   10.8884456599
H       13.8745349701    8.1182958687   11.6114239762
C       11.7044530043    7.2343798527    4.5928649598
C       12.4727511085    5.9809551163    5.0630437564
O       12.4163212567    6.0839667839    6.4994806196
C       11.7382499490    7.1755913875    6.8710911156
O       11.5077607784    7.4364498466    8.0304570507
O       11.3301831694    7.8847101005    5.8296181581
H       10.7867743027    6.9986064402    4.0444736825
H       12.3196534704    7.9317699367    4.0155470647
H       13.5256743310    5.9745349365    4.7623618653
H       11.9911108355    5.0399217113    4.7789313916
Li      11.6226507401    5.8799810548    9.2381294224
51   
Iteration 9 Energy -1457.24838524
C        9.3567400632    2.5213368092   11.5507571705
C       10.2195158431    3.7444902609   11.7507064432
O        9.3629177922    4.9158241386   11.6459259742
C        9.9087607099    6.0608298013   11.3204546073
O       11.0959617480    6.2375481378   11.0531748401
O        9.0008616369    7.0163245848   11.2881760086
C        9.4613904808    8.3363109918   10.9418189760
H        9.9739556362    1.6205298199   11.6668544344
H        8.9214942884    2.5192768795   10.5429748142
H        8.5441362745    2.4817559865   12.2864459883
H       10.6837586246    3.7702231386   12.7451733101
H       11.0086266799    3.8165091451   10.9955543059
H        9.9921387870    8.3176100216    9.9834063960
H       10.1287187410    8.7144896145   11.7248912670
H        8.5607307012    8.9502821725   10.8778087679
C        7.1741899560    5.9125900976    8.2014969598
C        8.3308012942    6.4923770856    7.4162265954
O        9.0712150825    5.4549983252    6.7011713689
C        9.8665570059    4.6706341824    7.3978458528
O       10.1587415474    4.8373684549    8.5763712798
O       10.3391057314    3.6992686676    6.6439783200
C       11.2587690111    2.7815914927    7.2754415389
H        7.5263865636    5.2931309311    9.0347375655
H        6.5215545641    5.3175657463    7.5501624769
H        6.5808392998    6.7359361851    8.6215758052
H        7.9932208031    7.1559747617    6.6149246581
H        9.0343560868    7.0376581686    8.0532279828
H       12.1355647879    3.3225654694    7.6465254871
H       11.5333880458    2.0699183473    6.4944883569
H       10.7571445091    2.2705888356    8.1046574650
C       14.8835301244    6.2075545877   12.1784464314
C       14.6076184078    7.3966959025   11.2337575747
O       14.0019193714    6.7709617074   10.0893358811
C       13.8350583859    5.4613771131   10.3033739358
O       13.2272608538    4.7521909322    9.5341639353
O       14.3648118722    5.0723457772   11.4530722235
H       14.3399030468    6.2748340570   13.1265882525
H       15.9479639771    6.0356714939   12.3673022049
H       15.5146981940    7.9139330669   10.9038741644
H       13.8910225427    8.1188473710   11.6393894142
C       11.7011038949    7.2415918751    4.5790962051
C       12.4657457227    5.9816302343    5.0386847226
O       12.4133658415    6.0733524199    6.4759782867
C       11.7420995584    7.1657478215    6.8547246389
O       11.5194144376    7.4168007286    8.0175227905
O       11.3339318366    7.8858914069    5.8209771955
H       10.7801588625    7.0127985709    4.0332970946
H       12.3158686926    7.9414147847    4.0044136682
H       13.5180498027    5.9727366472    4.7360410354
H       11.9790381657    5.0452147541    4.7479912952
Li      11.6257942289    5.8775736470    9.2401101375
51   
Iteration 10 Energy -1457.24896087
C        9.3481988317    2.5295834257   11.5456624405
C       10.2107817684    3.7525601001   11.7484988048
O        9.3521511861    4.9236338861   11.6533571586
C        9.8926798301    6.0699177007   11.3248161140
O       11.0785047604    6.2537852870   11.0556741658
O        8.9799454739    7.0208447356   11.2942137024
C        9.4314695706    8.3411921410   10.9394727696
H        9.9661270254    1.6288385400   11.6566680671
H        8.9098773011    2.5310795437   10.5394732697
H        8.5385378644    2.4872612743   12.2841806654
H       10.6760767211    3.7733743111   12.7425618572
H       10.9971457417    3.8299525430   10.9915349698
H        9.9568845974    8.3206142483    9.9782207581
H       10.1018964459    8.7260778704   11.7165622922
H        8.5274066942    8.9503625039   10.8786130275
C        7.1760151833    5.9092646082    8.2054208795
C        8.3312254584    6.4797404089    7.4110908286
O        9.0652594464    5.4366577248    6.6994294645
C        9.8671734745    4.6588241502    7.3969284000
O       10.1673932333    4.8253049558    8.5728093271
O       10.3403099175    3.6903214249    6.6398449173
C       11.2691044613    2.7792103560    7.2660543229
H        7.5308981788    5.2922960127    9.0390988154
H        6.5179508871    5.3137208020    7.5605466582
H        6.5883952840    6.7365303573    8.6253536785
H        7.9925902839    7.1392293609    6.6069569652
H        9.0394054723    7.0250429281    8.0428965302
H       12.1424120764    3.3270439357    7.6353475500
H       11.5467304501    2.0709281192    6.4832041927
H       10.7752303119    2.2625571222    8.0963430679
C       14.9069935581    6.2039302864   12.2019413830
C       14.6260501879    7.3970198000   11.2639488886
O       14.0078606590    6.7768805797   10.1233514384
C       13.8390899235    5.4673090610   10.3340492358
O       13.2265153161    4.7588308521    9.5683250264
O       14.3791483203    5.0729829632   11.4767770545
H       14.3713220215    6.2702468162   13.1546749761