38   
Iteration 0 Energy -1974.15434458
C       -7.3779182100   -8.5008039200   13.4827232700
C       -8.7314929700   -7.9219875000   13.6808548300
O       -9.4485645000   -8.3191919000   12.4665298800
C       -8.7962131200   -9.3978032800   11.8984337200
O       -9.2684526100   -9.9725808800   10.9604721400
O       -7.6414184300   -9.6192369200   12.5524025300
H       -6.9164790800   -8.8662872000   14.3591652200
H       -6.7073554700   -7.7169036600   13.0494499500
H       -8.7767562600   -6.8263873800   13.8126678800
H       -9.2030935000   -8.4458560600   14.5458298000
C      -11.5410079700  -14.2970704700   10.6842117600
C      -11.4763822300  -14.8334159600    9.2988510400
O      -11.3348121300  -13.6789979600    8.4643059100
C      -10.9762019800  -12.5892114300    9.2185860000
O      -10.6483506900  -11.5301551500    8.8077240300
O      -11.1395234800  -12.9022731500   10.5463791200
H      -10.8885221200  -14.8025912900   11.3962250100
H      -12.5341062200  -14.3685569500   11.0817222900
H      -12.4068155000  -15.3193206500    8.9281959800
H      -10.6555747700  -15.4923915600    9.0300941800
C       -4.9038562500  -12.8364763000    7.0236549700
C       -4.1183242500  -12.3112716400    8.1864509900
O       -5.0551757500  -11.3226947500    8.7680702500
C       -6.3376807900  -11.4524583500    8.2258758800
O       -7.3029975600  -10.8221683200    8.6106491400
O       -6.2590579700  -12.3494977700    7.1750984500
H       -5.0257777900  -13.9223298700    7.0195026700
H       -4.4943179800  -12.5606860800    6.0379104900
H       -3.2035903600  -11.8722095200    7.8766479800
H       -4.0360889100  -13.0599803600    9.0231514300
Li      -9.1739301400  -10.2932433800    9.0610542600
P       -9.9591779400   -7.4705562300    7.4620209000
F       -8.5862874700   -7.1414146100    7.7486591600
F       -9.5987539000   -8.9315595300    7.9591408100
F      -10.2896451700   -7.0768012700    8.9357643400
F      -11.2570075700   -7.7633514100    7.1521168100
F      -10.2288207700   -5.7849788400    7.1005897800
F       -9.4213132600   -7.8206405300    5.8003673900
38   
Iteration 1 Energy -1974.21390606
C       -7.3734552125   -8.4963719001   13.4632549601
C       -8.7542821137   -7.9214532684   13.6909296488
O       -9.4518195253   -8.3057784694   12.4870991064
C       -8.7981883779   -9.3560031922   11.9102407569
O       -9.1857584091   -9.9930352409   10.9745444502
O       -7.6405635844   -9.5858781694   12.5455551254
H       -6.8884862210   -8.8905811235   14.3503544576
H       -6.6936506844   -7.7579054963   13.0011705069
H       -8.8053046115   -6.8344465142   13.8156720509
H       -9.2452526335   -8.4256361485   14.5432159660
C      -11.5444105243  -14.2965378789   10.6857558541
C      -11.4845927363  -14.8452167164    9.2711803769
O      -11.3201034062  -13.6739547856    8.4533325106
C      -10.9742649680  -12.6244958721    9.2338715442
O      -10.6155900680  -11.5807405915    8.7902912278
O      -11.1249377421  -12.9249018083   10.5500895880
H      -10.8807160199  -14.8052275930   11.3932040427
H      -12.5516390616  -14.3332741548   11.1056776800
H      -12.4107495538  -15.3271371313    8.9196883740
H      -10.6514483229  -15.5189021897    9.0403197878
C       -4.9377503430  -12.8458223145    7.0168325464
C       -4.1548048389  -12.3023943841    8.2049988704
O       -5.0725189727  -11.3241549385    8.7807292348
C       -6.3098800324  -11.4690584007    8.2254924699
O       -7.2695903726  -10.8709383152    8.6130988137
O       -6.2756633326  -12.3486958727    7.1954879632
H       -5.0248002434  -13.9394547414    7.0095951190
H       -4.5507485219  -12.5428334216    6.0337827989
H       -3.2252161502  -11.8189074972    7.9214658439
H       -4.0386008217  -13.0503608485    9.0088994254
Li      -9.3583552128  -10.4092646791    9.0006718394
P       -9.8781514985   -7.4160828528    7.4974931372
F       -8.4879409376   -6.7574488795    7.5276704509
F       -9.6504829307   -8.9857257616    7.9494831806
F      -10.3253320292   -7.0724091546    9.0232580344
F      -11.2208484892   -7.9773508012    7.2891387385
F      -10.1852821765   -5.7861103542    7.0271215848
F       -9.3694401010   -7.7987111171    5.8856810363
38   
Iteration 2 Energy -1974.28522530
C       -7.3707837555   -8.4981814519   13.4533158237
C       -8.7641745653   -7.9231864854   13.6886797456
O       -9.4519762925   -8.3058062887   12.4897169267
C       -8.7990412909   -9.3419981932   11.9156827061
O       -9.1661006205   -9.9925880770   10.9806749226
O       -7.6389450291   -9.5756859045   12.5431722840
H       -6.8770618886   -8.9005463003   14.3491603663
H       -6.6911011800   -7.7726115487   12.9854329916
H       -8.8178145012   -6.8397867567   13.8112280003
H       -9.2586648276   -8.4208425072   14.5365891590
C      -11.5478018274  -14.2987871284   10.6882207570
C      -11.4909699656  -14.8570452965    9.2622633082
O      -11.3258357836  -13.6797930853    8.4513999559
C      -10.9883070204  -12.6486009506    9.2359855300
O      -10.6299503291  -11.6064090488    8.7759296218
O      -11.1292247922  -12.9369957181   10.5446074496
H      -10.8778676255  -14.8053402716   11.3946726146
H      -12.5607327583  -14.3264171830   11.1182442889
H      -12.4133861844  -15.3384051197    8.9186021951
H      -10.6515861783  -15.5332415017    9.0424470645
C       -4.9510186360  -12.8474756130    7.0142481353
C       -4.1678296210  -12.2983385428    8.2125400615
O       -5.0813029749  -11.3276509003    8.7819033500
C       -6.2996460323  -11.4753374550    8.2273925835
O       -7.2590832965  -10.8929833659    8.6045475893
O       -6.2795306553  -12.3441583233    7.2073819978
H       -5.0282652095  -13.9437184323    7.0065208723
H       -4.5711190441  -12.5380787695    6.0321168653
H       -3.2297900818  -11.8001948226    7.9374655845
H       -4.0430642519  -13.0441354323    9.0045547734
Li      -9.0859953794  -10.3173596752    9.0372206612
P       -9.9250664958   -7.3938584325    7.4821188426
F       -8.3542300787   -7.1113354408    7.7204569427
F       -9.5273449424   -8.9677300815    7.9510110277
F      -10.3799440242   -7.0261478301    9.0387175748
F      -11.4121569579   -7.7059609019    7.1043205545
F      -10.2771512688   -5.7919479860    6.9844308061
F       -9.4281931776   -7.8053700555    5.8991484538
38   
Iteration 3 Energy -1974.25409065
C       -7.3619030120   -8.4947662550   13.4459280646
C       -8.7753110014   -7.9397157293   13.6682708648
O       -9.4449470063   -8.3310353457   12.4617520520
C       -8.7715857341   -9.3416021645   11.9014522070
O       -9.1725226812   -9.9652317990   10.9590334796
O       -7.6066899837   -9.5688796289   12.5342717467
H       -6.8766854267   -8.8915723119   14.3528686657
H       -6.6861704569   -7.7747160671   12.9693301461
H       -8.8366064376   -6.8550238245   13.7776044820
H       -9.2803152436   -8.4271756919   14.5130833710
C      -11.5515114208  -14.3093210962   10.6803579118
C      -11.5071217149  -14.8911950695    9.2590647517
O      -11.3131063156  -13.7167695342    8.4477531923
C      -10.9634988841  -12.6661057166    9.2016422600
O      -10.5632130233  -11.6013509673    8.8214908340
O      -11.1074187984  -12.9625419417   10.5019303059
H      -10.8765230020  -14.8129872838   11.3846885523
H      -12.5642778868  -14.3026808960   11.1166573928
H      -12.4362844429  -15.3706480495    8.9398357929
H      -10.6672267690  -15.5787932495    9.0770922899
C       -4.9718158098  -12.8504990621    7.0178987577
C       -4.1862570074  -12.2965745170    8.2195325669
O       -5.1019149684  -11.3364978589    8.7858405960
C       -6.3226773189  -11.4757042116    8.2506569610
O       -7.3179329485  -10.9272937289    8.6139313409
O       -6.2959445100  -12.3462195367    7.2366337280
H       -5.0195821985  -13.9481541555    7.0051107272
H       -4.6085125455  -12.5103887258    6.0403511887
H       -3.2546042401  -11.7779049356    7.9507255713
H       -4.0180686724  -13.0539133215    8.9893782286
Li      -9.1875718613  -10.2551389322    9.1193275610
P       -9.8925935278   -7.3693626674    7.4340176561
F       -8.4255595865   -6.8463334384    7.9665846987
F       -9.5571863879   -8.9596580868    7.9571398388
F      -10.0444864253   -7.0609903719    9.0625489705
F      -11.3480806477   -7.8780187382    6.9765100723
F      -10.2519931587   -5.8146450185    6.9334485481
F       -9.6040081366   -7.7668253879    5.8402711153
38   
Iteration 4 Energy -1974.30079249
C       -7.3609130147   -8.4925312169   13.4472443099
C       -8.7751118914   -7.9400302427   13.6688505521
O       -9.4435504383   -8.3338966254   12.4613222311
C       -8.7708790214   -9.3421247417   11.9009866560
O       -9.1724969379   -9.9670062488   10.9592819212
O       -7.6046699302   -9.5673650276   12.5347209734
H       -6.8777848559   -8.8879447251   14.3538927068
H       -6.6860295664   -7.7725583939   12.9684384595
H       -8.8362135315   -6.8544740543   13.7759418650
H       -9.2813295966   -8.4259193379   14.5139762065
C      -11.5524536612  -14.3117180450   10.6814782012
C      -11.5087821907  -14.8930608288    9.2582876441
O      -11.3097392287  -13.7203767400    8.4468568822
C      -10.9590289533  -12.6708365936    9.2018535390
O      -10.5553761821  -11.6101506413    8.8142528038
O      -11.1036095776  -12.9664240169   10.5030643248
H      -10.8779199266  -14.8175027439   11.3841987086
H      -12.5645850854  -14.3012827245   11.1164969878
H      -12.4395026057  -15.3709305738    8.9405739875
H      -10.6692574388  -15.5814727954    9.0818579960
C       -4.9754804037  -12.8511332983    7.0178636916
C       -4.1909484186  -12.2949424074    8.2207970964
O       -5.1079817594  -11.3374205197    8.7868861263
C       -6.3297677828  -11.4779170357    8.2531798512
O       -7.3272411404  -10.9272461626    8.6237616295
O       -6.3010466064  -12.3502778753    7.2373524732
H       -5.0169284407  -13.9485245648    7.0047584769
H       -4.6134386874  -12.5055339748    6.0416317037
H       -3.2620241192  -11.7731552522    7.9534905011
H       -4.0149151380  -13.0543828948    8.9884498137
Li      -9.1630958411  -10.2749798945    9.0657623955
P       -9.8855331903   -7.3580261947    7.4489472564
F       -8.3533567574   -6.8680376860    7.8210209771
F       -9.5450414977   -8.9586786581    7.9344521255
F      -10.2157162163   -7.0103550334    9.0454848816
F      -11.3800109111   -7.8536472822    7.0994888945
F      -10.2467280811   -5.8133007433    6.9653818717
F       -9.4989759007   -7.7956450473    5.8952458259
38   
Iteration 5 Energy -1974.29595840
C       -7.3651940127   -8.4801566263   13.4452617000
C       -8.7724832992   -7.9321968101   13.6687407363
O       -9.4402950537   -8.3343487815   12.4588826027
C       -8.7731857437   -9.3404337554   11.8740175548
O       -9.1267879443   -9.9929686230   10.9313433394
O       -7.6077884259   -9.5525242208   12.5164116149
H       -6.8903913645   -8.8805044461   14.3459662403
H       -6.6965841084   -7.7485158293   12.9682462945
H       -8.8285325926   -6.8435437594   13.7694279811
H       -9.2768123623   -8.4165019181   14.5184348790
C      -11.5467760561  -14.3089674924   10.6880289297
C      -11.5033502314  -14.8745875725    9.2556020693
O      -11.2555049199  -13.7162125600    8.4434156079
C      -10.8880573904  -12.6924381930    9.2258037879
O      -10.4578831571  -11.6786599215    8.7571530523
O      -11.0487808505  -12.9753091752   10.5338750746
H      -10.8934082727  -14.8439092871   11.3870823548
H      -12.5607443449  -14.2714947212   11.1054876342
H      -12.4448968002  -15.3282867934    8.9257045527
H      -10.6798809056  -15.5814418081    9.0919811795
C       -4.9932414200  -12.8478500647    7.0213278160
C       -4.2161132694  -12.2823494436    8.2261182135
O       -5.1433744786  -11.3418590326    8.8024114713
C       -6.3608530125  -11.5104008961    8.2620145921
O       -7.3289782630  -10.9413701001    8.6816047695
O       -6.3321965029  -12.3828213566    7.2382643972
H       -5.0109838282  -13.9438340450    6.9973716817
H       -4.6383418080  -12.4735630701    6.0523646931
H       -3.3023223590  -11.7473110141    7.9540344473
H       -4.0041934033  -13.0470065532    8.9871696470
Li      -9.2190873992  -10.2058149775    9.1501912511
P       -9.8977480868   -7.3582582606    7.4151846059
F       -8.3229175356   -7.0415415007    7.7549502811
F       -9.5749264436   -8.9328141474    7.9600099061
F      -10.2622181940   -7.2100837013    9.0148944253
F      -11.4360992732   -7.7568049990    7.1313357136
F      -10.2025945077   -5.8114193857    6.9901014697
F       -9.4537229160   -7.6453515117    5.8656761018
38   
Iteration 6 Energy -1974.30748917
C       -7.3641659145   -8.4790870955   13.4470468540
C       -8.7723883885   -7.9317829252   13.6694866453
O       -9.4407219600   -8.3351251261   12.4609938576
C       -8.7714346278   -9.3402743585   11.8801430955
O       -9.1307581857   -9.9907553222   10.9399774542
O       -7.6053494996   -9.5528574546   12.5200906031
H       -6.8893981486   -8.8783449326   14.3476835917
H       -6.6964550292   -7.7473691492   12.9689853587
H       -8.8291442188   -6.8431225935   13.7682811717
H       -9.2768746676   -8.4152328842   14.5194083969
C      -11.5465662095  -14.3090652694   10.6872126095
C      -11.5039939143  -14.8763446274    9.2558103278
O      -11.2546138877  -13.7190202629    8.4433484604
C      -10.8852137247  -12.6923646543    9.2233313783
O      -10.4536615540  -11.6759931407    8.7619890307
O      -11.0467664477  -12.9758130602   10.5311111626
H      -10.8935873695  -14.8439785997   11.3865116311
H      -12.5602574342  -14.2694109980   11.1045455883
H      -12.4462474457  -15.3294083234    8.9269203323
H      -10.6812695716  -15.5843202911    9.0935661831
C       -4.9947689874  -12.8468785284    7.0223077150
C       -4.2166242701  -12.2821082357    8.2262239720
O       -5.1434947554  -11.3424111649    8.8032181598
C       -6.3636127103  -11.5093459770    8.2649955023
O       -7.3351879957  -10.9438987719    8.6802735790
O       -6.3337333878  -12.3819370485    7.2409789435
H       -5.0121580565  -13.9427474392    6.9977106081
H       -4.6408237939  -12.4712712229    6.0534670965
H       -3.3032137211  -11.7469948133    7.9533494432
H       -4.0027054617  -13.0471449402    8.9865512759
Li      -9.1951341241  -10.2630992131    9.0551892747
P       -9.9002078539   -7.3546680083    7.4312402192
F       -8.3289796087   -7.0229549147    7.7713590956
F       -9.5653348878   -8.9462929343    7.9200553436
F      -10.2977665446   -7.0695254346    9.0041937097
F      -11.4372551119   -7.7656795772    7.1456987420
F      -10.2044592080   -5.8073822478    7.0171482686
F       -9.4343728906   -7.7380530813    5.9118822106
38   
Iteration 7 Energy -1974.30493019
C       -7.3583859323   -8.4778841255   13.4393999590
C       -8.7817825972   -7.9398126254   13.6506882688
O       -9.4472354008   -8.3468479122   12.4459472471
C       -8.7520214714   -9.3366701992   11.8902122125
O       -9.1744859216   -9.9481945375   10.9510306892
O       -7.5792245691   -9.5532534900   12.5196695472
H       -6.8837748447   -8.8735249751   14.3472715331
H       -6.6928824580   -7.7489808280   12.9607051380
H       -8.8488134157   -6.8525000625   13.7396226246
H       -9.2905901510   -8.4173805361   14.4985963921
C      -11.5511242263  -14.3194620590   10.6758648217
C      -11.5242442583  -14.9251393760    9.2626361921
O      -11.2743356075  -13.7763039997    8.4388148934
C      -10.8915023156  -12.7160808620    9.1705649800
O      -10.4642222596  -11.6591886236    8.8011643097
O      -11.0457411325  -12.9948865212   10.4725984839
H      -10.8930768917  -14.8390248954   11.3829137577
H      -12.5622543734  -14.2530412984   11.1034017248
H      -12.4703498599  -15.3784534452    8.9549517159
H      -10.7041816709  -15.6422287179    9.1157756926
C       -5.0086709485  -12.8392940177    7.0287205000
C       -4.2213252999  -12.2809015925    8.2269254666
O       -5.1468865197  -11.3482111243    8.8078499389
C       -6.3809046933  -11.4954050612    8.2931595375
O       -7.4003299404  -10.9754055824    8.6471105681
O       -6.3409937982  -12.3666987130    7.2751070078
H       -5.0226121458  -13.9358497805    6.9978520704
H       -4.6687108564  -12.4544082587    6.0591668555
H       -3.3072822425  -11.7402001556    7.9501230235
H       -3.9939047183  -13.0473791320    8.9759605460
Li      -9.1320078652  -10.2373612643    9.0629918550
P       -9.8654151328   -7.3329161220    7.4466660506
F       -8.3085763117   -6.8793131425    7.7751502708
F       -9.5202357822   -8.9379229731    7.9209535068
F      -10.2454989895   -7.0422761331    9.0351725101
F      -11.3845653087   -7.8417053533    7.1535681972
F      -10.2116879527   -5.8012193595    7.0095940212
F       -9.4661955418   -7.7523784250    5.9180419170
38   
Iteration 8 Energy -1974.31028722
C       -7.3632388527   -8.4700029540   13.4394477307
C       -8.7792155693   -7.9295664207   13.6601546426
O       -9.4483515527   -8.3382998969   12.4566448789
C       -8.7663973942   -9.3344952266   11.8811594072
O       -9.1451786958   -9.9771752904   10.9426918557
O       -7.5935508419   -9.5426003389   12.5125713849
H       -6.8879320594   -8.8712625290   14.3418847569
H       -6.6985349292   -7.7399427614   12.9590590871
H       -8.8404742062   -6.8412344425   13.7492214266
H       -9.2861427844   -8.4058795956   14.5107930619
C      -11.5510215744  -14.3209581572   10.6824944123
C      -11.5222903192  -14.9167289165    9.2610834164
O      -11.2578870919  -13.7738632083    8.4357641112
C      -10.8736053578  -12.7312511552    9.1875376142
O      -10.4456562552  -11.7031148705    8.7495919179
O      -11.0293395444  -13.0000695532   10.4956234282
H      -10.9018331555  -14.8528516395   11.3879358707
H      -12.5630881873  -14.2468256718   11.1029612418
H      -12.4718893245  -15.3601608841    8.9461978686
H      -10.7081544266  -15.6400595138    9.1170392981
C       -5.0132336970  -12.8400655237    7.0255946952
C       -4.2330549701  -12.2739777464    8.2286093519
O       -5.1614035510  -11.3482942948    8.8134511925
C       -6.3845037182  -11.5159619717    8.2862879128
O       -7.3728790297  -10.9726500251    8.6840041968
O       -6.3521698792  -12.3864317047    7.2644421980
H       -5.0164045777  -13.9359043489    6.9917836949
H       -4.6740250666  -12.4461376035    6.0592531399
H       -3.3249211730  -11.7258778023    7.9534916590
H       -3.9956750033  -13.0400628221    8.9773132303
Li      -9.1372456207  -10.2464023185    9.0376938247
P       -9.8699350595   -7.3313947608    7.4488908878
F       -8.3047086589   -6.9283122048    7.7817701531
F       -9.5247107988   -8.9377125111    7.9068849840
F      -10.2602596509   -7.0335395376    9.0268013340
F      -11.3986461638   -7.8092725986    7.1567063875
F      -10.2031111471   -5.7999798636    7.0212372244
F       -9.4514039710   -7.7392034880    5.9259271460
38   
Iteration 9 Energy -1974.31050548
C       -7.3640849006   -8.4568742853   13.4399675533
C       -8.7801425954   -7.9206800022   13.6585842291
O       -9.4536670477   -8.3391174029   12.4590007424
C       -8.7663254455   -9.3324165349   11.8835654145
O       -9.1561441763   -9.9738134138   10.9488954932
O       -7.5888340910   -9.5319219151   12.5098550107
H       -6.8908907291   -8.8575580261   14.3408103538
H       -6.7036321624   -7.7203577021   12.9610047665
H       -8.8430549154   -6.8309598171   13.7393912205
H       -9.2834041749   -8.3935613985   14.5142576088
C      -11.5445356189  -14.3148487282   10.6810662371
C      -11.5201899217  -14.9116915362    9.2617215765
O      -11.2236544317  -13.7783304971    8.4351159022
C      -10.8217365106  -12.7376149644    9.1858647273
O      -10.3686788729  -11.7193862631    8.7506462671
O      -10.9873581109  -13.0059965265   10.4949163861
H      -10.9128330662  -14.8616290660   11.3902059005
H      -12.5565484349  -14.2155501698   11.0921019781
H      -12.4784921235  -15.3370268492    8.9434001879
H      -10.7223717638  -15.6535607857    9.1257719335
C       -5.0179445204  -12.8354556227    7.0259042336
C       -4.2331259953  -12.2707113017    8.2246419218
O       -5.1645628723  -11.3559852447    8.8209591183
C       -6.3920060679  -11.5277076764    8.3005443109
O       -7.3776862223  -10.9841054076    8.7055877449
O       -6.3609996877  -12.3982270772    7.2772178418
H       -5.0131209682  -13.9302191926    6.9832005548
H       -4.6902487117  -12.4274641459    6.0612097746
H       -3.3329182660  -11.7170147455    7.9419206699
H       -3.9787519212  -13.0388972979    8.9686077542
Li      -9.2105939192  -10.2836736142    9.0068854338
P       -9.8766340624   -7.3373196715    7.4501145188
F       -8.2997936849   -7.0257644936    7.8042036412
F       -9.5610075699   -8.9534790826    7.8875783474
F      -10.2731593175   -7.0647400588    9.0234853694
F      -11.4228969370   -7.7477690211    7.1429407731
F      -10.1730056011   -5.7919683218    7.0536271680
F       -9.4402167485   -7.7035216359    5.9195977070
38   
Iteration 10 Energy -1974.31147517
C       -7.3670542419   -8.4518209355   13.4326217660
C       -8.7835198069   -7.9170450982   13.6533304300
O       -9.4583673613   -8.3381113225   12.4555379938
C       -8.7704695397   -9.3290577024   11.8756697266
O       -9.1559649493   -9.9721911305   10.9404615949
O       -7.5911928199   -9.5248358383   12.4999145999
H       -6.8933212671   -8.8548938318   14.3326860939
H       -6.7074795767   -7.7141315191   12.9549409940
H       -8.8467779892   -6.8272248400   13.7317904387
H       -9.2846052022   -8.3880295583   14.5111485676
C      -11.5472562427  -14.3202837536   10.6817829358
C      -11.5284585627  -14.9267293996    9.2652096427
O      -11.2251364047  -13.8032043030    8.4301876451
C      -10.8198961781  -12.7633208527    9.1767385160
O      -10.3704263503  -11.7547674707    8.7184581228
O      -10.9787547372  -13.0176708408   10.4879517679
H      -10.9202033048  -14.8681149297   11.3940946833
H      -12.5582434909  -14.2070483888   11.0921486094
H      -12.4897754926  -15.3457139300    8.9493086276
H      -10.7363545834  -15.6755334910    9.1337554520
C       -5.0234617453  -12.8316559144    7.0260401522
C       -4.2364599188  -12.2671040798    8.2231562586
O       -5.1689023595  -11.3582548706    8.8255417193
C       -6.3983467782  -11.5308697069    8.3090692243
O       -7.3860724335  -10.9910189383    8.7136472198
O       -6.3675641708  -12.4014573956    7.2860297519
H       -5.0135387951  -13.9262375620    6.9786404398
H       -4.7026785430  -12.4171014450    6.0618566810
H       -3.3392721086  -11.7089978280    7.9375456576
H       -3.9738627126  -13.0358424168    8.9632674691
Li      -9.1881541012  -10.2605829647    9.0269824290
P       -9.8670729808   -7.3320414018    7.4578287652
F       -8.2935312759   -6.9980904454    7.8064956766
F       -9.5459526484   -8.9498326086    7.8888523768
F      -10.2599147975   -7.0505869964    9.0302171933
F      -11.4112811582   -7.7596975919    7.1529744067
F      -10.1626851191   -5.7840882573    7.0663889931
F       -9.4363370871   -7.7016470739    5.9254168251
38   
Iteration 11 Energy -1974.31205645
C       -7.3739351655   -8.4388864759   13.4184140583
C       -8.7905203915   -7.9052902959   13.6475828547
O       -9.4724599545   -8.3326334869   12.4573948765
C       -8.7854151064   -9.3189641045   11.8685376951
O       -9.1645392712   -9.9704017580   10.9365299838
O       -7.6005218346   -9.5076676857   12.4827681551
H       -6.8969523708   -8.8475987409   14.3154754042
H       -6.7152291360   -7.7011648449   12.9412864195
H       -8.8541749540   -6.8154400474   13.7196266008
H       -9.2857476357   -8.3706510796   14.5112000887
C      -11.5482855273  -14.3240561480   10.6796835611
C      -11.5406237622  -14.9477428013    9.2704706202
O      -11.2175608757  -13.8380168424    8.4245568129
C      -10.7991781823  -12.7930250262    9.1569532330
O      -10.3490359046  -11.7843964452    8.6982528839
O      -10.9524250788  -13.0360921677   10.4695614585
H      -10.9337673524  -14.8756981998   11.4000030930
H      -12.5574445052  -14.1809620314   11.0869501245
H      -12.5095245871  -15.3523147749    8.9604492031
H      -10.7628750622  -15.7137334719    9.1488926653
C       -5.0359876543  -12.8235596481    7.0241976717
C       -4.2457575701  -12.2572455456    8.2199943085
O       -5.1785616475  -11.3599032360    8.8357801160
C       -6.4066855638  -11.5388234242    8.3214933240
O       -7.3852625846  -10.9955620413    8.7409838173
O       -6.3822491396  -12.4103997696    7.2995276835
H       -5.0134326967  -13.9176642696    6.9673175183
H       -4.7292519140  -12.3962871868    6.0611096977
H       -3.3552419336  -11.6883449100    7.9308626099
H       -3.9680571231  -13.0267288596    8.9524523910
Li      -9.1754905107  -10.2679158790    9.0167947143
P       -9.8480196048   -7.3285821212    7.4729430031
F       -8.2749486858   -6.9883773658    7.8228215283
F       -9.5320240187   -8.9573541792    7.8753003650
F      -10.2329750912   -7.0700948662    9.0519098805
F      -11.3929108749   -7.7633855542    7.1636800085
F      -10.1415847577   -5.7754181607    7.0929483425
F       -9.4331461706   -7.6846503914    5.9341379071
38   
Iteration 12 Energy -1974.31287328
C       -7.3840720775   -8.4205119810   13.3956708803
C       -8.8014675609   -7.8899079722   13.6329659776
O       -9.4949266137   -8.3271497186   12.4534515280
C       -8.8041137124   -9.3056808614   11.8560966681
O       -9.1946163534   -9.9553097699   10.9275765571
O       -7.6104361996   -9.4855329398   12.4554082869
H       -6.9043311480   -8.8337347338   14.2891178955
H       -6.7275489657   -7.6790501286   12.9214416417
H       -8.8671199371   -6.7995316059   13.6960504970
H       -9.2873666885   -8.3484472789   14.5054329872
C      -11.5487083108  -14.3265010444   10.6787800946
C      -11.5550357052  -14.9680755206    9.2776280251
O      -11.2027642591  -13.8786763788    8.4170081224
C      -10.7668853294  -12.8319416718    9.1373629162
O      -10.3087309006  -11.8355597030    8.6591314415
O      -10.9131350673  -13.0594809942   10.4536183455
H      -10.9546545662  -14.8862761566   11.4096422663
H      -12.5546240524  -14.1453498207   11.0786172677
H      -12.5344382085  -15.3508669759    8.9718953579
H      -10.7988852326  -15.7570887328    9.1670685063
C       -5.0496212709  -12.8099228262    7.0225299801
C       -4.2471667742  -12.2470298567    8.2107040905
O       -5.1786280614  -11.3636719665    8.8467899482
C       -6.4134089351  -11.5435124159    8.3463519548
O       -7.3914895725  -11.0040833932    8.7713250444
O       -6.3964950295  -12.4160323966    7.3250832512
H       -5.0158421484  -13.9027438916    6.9515728072
H       -4.7647211878  -12.3663479465    6.0600858598
H       -3.3664294629  -11.6681583359    7.9113937853
H       -3.9497831729  -13.0191885124    8.9328159426
Li      -9.1803382166  -10.2796496181    9.0201636564
P       -9.8257593500   -7.3316445459    7.4954528417
F       -8.2507332344   -7.0136401180    7.8491384027
F       -9.5246637516   -8.9724629688    7.8646324405
F      -10.2066662524   -7.0974558370    9.0765371462
F      -11.3774981371   -7.7468084574    7.1801666036
F      -10.1060472315   -5.7681306835    7.1446095267
F       -9.4179999261   -7.6610981164    5.9483879376
38   
Iteration 13 Energy -1974.31392689
C       -7.4032686206   -8.3955613076   13.3553451835
C       -8.8191970082   -7.8664770750   13.6103930372
O       -9.5334151655   -8.3165578693   12.4484692274
C       -8.8442917256   -9.2873825123   11.8365066260
O       -9.2536511609   -9.9392547895   10.9175273763
O       -7.6372599226   -9.4554685506   12.4109693024
H       -6.9161745158   -8.8140385010   14.2422424301
H       -6.7499176866   -7.6504239822   12.8823148631
H       -8.8856005143   -6.7753377597   13.6635748437
H       -9.2884438649   -8.3159471555   14.4967079311
C      -11.5512657171  -14.3285798683   10.6778068091
C      -11.5764754611  -14.9918773408    9.2881071142
O      -11.1927835613  -13.9266233628    8.4100362773
C      -10.7339345255  -12.8776714754    9.1139448028
O      -10.2611806186  -11.8940872020    8.6222800711
O      -10.8707185362  -13.0882988727   10.4339904445
H      -10.9811890729  -14.8952766665   11.4219511702
H      -12.5518418984  -14.1044520614   11.0688346293
H      -12.5678229987  -15.3491246288    8.9886288124
H      -10.8460289987  -15.8059739414    9.1881120632
C       -5.0636184908  -12.7901375228    7.0174845705
C       -4.2377207995  -12.2353454666    8.1918412338
O       -5.1607195119  -11.3651879765    8.8574177923
C       -6.4060624546  -11.5436864887    8.3820440733
O       -7.3787976162  -11.0090415425    8.8247275606
O       -6.4070290782  -12.4148425116    7.3596729021
H       -5.0214027879  -13.8811678002    6.9287978966
H       -4.8079695818  -12.3292980254    6.0548501701
H       -3.3687769385  -11.6475446989    7.8769594691
H       -3.9196131666  -13.0121410951    8.9004230192
Li      -9.1927644794  -10.2985935610    9.0286915433
P       -9.7940488688   -7.3429885182    7.5287816769
F       -8.2158463631   -7.0647487894    7.8865008445
F       -9.5168195681   -8.9991724373    7.8488453340
F      -10.1681164423   -7.1507302070    9.1145005491
F      -11.3559520311   -7.7177019917    7.2045422102
F      -10.0539574008   -5.7639399115    7.2302453415
F       -9.3932205517   -7.6278609069    5.9695060412
38   
Iteration 14 Energy -1974.31531165
C       -7.4331692472   -8.3624136087   13.2935843630
C       -8.8454643121   -7.8335189046   13.5788136602
O       -9.5920146065   -8.3005243754   12.4452872232
C       -8.9094406009   -9.2632036975   11.8147710255
O       -9.3505578761   -9.9190161264   10.9130875100
O       -7.6826872544   -9.4166012786   12.3482103704
H       -6.9317816391   -8.7862611216   14.1701951589
H       -6.7855746019   -7.6150362940   12.8164065583
H       -8.9124782047   -6.7416302402   13.6185712001
H       -9.2891125890   -8.2698412471   14.4846470890
C      -11.5560375857  -14.3289483030   10.6784179317
C      -11.6033417602  -15.0128003086    9.3000543003