36   
Iteration 0 Energy -696.28973558
C      -12.8603430300  -12.9169643900  -13.2949819100
C      -14.2614927800  -12.7663372500  -13.3921355700
C      -14.7596235800  -11.6677731000  -14.0962199700
C      -13.8828268500  -10.6866940000  -14.7451715000
C      -12.5204725700  -10.8621395600  -14.6349887400
C      -11.9797964600  -11.9878796100  -13.9035834800
H      -12.4663267600  -13.7773693500  -12.7722377300
H      -14.9791327000  -13.5567730400  -13.0334767800
H      -15.7788649100  -11.6856792900  -14.4854831200
H      -14.3270826800   -9.7372082200  -15.1567325100
H      -11.8570433100  -10.2463329800  -15.2326840900
H      -10.8682852300  -12.2023037400  -13.9041823900
C      -13.2319744600  -16.8622932000  -14.3782223200
C      -14.5717037700  -16.6342677600  -14.8040684200
C      -14.8221729700  -15.6466626600  -15.8309315200
C      -13.7167767000  -15.1168870400  -16.5593136300
C      -12.4129055500  -15.5239591100  -16.2265156200
C      -12.2128323100  -16.4094190100  -15.1293858000
H      -13.0582912900  -17.5074729400  -13.5444668300
H      -15.4237469200  -17.0331420400  -14.3284252600
H      -15.6759480000  -15.1301936600  -16.0383022800
H      -13.9362286100  -14.3271283600  -17.2115467500
H      -11.4919613300  -15.1384877700  -16.8117207000
H      -11.1296871600  -16.6112060100  -14.9801014400
C      -19.2587460000  -14.8933391100  -14.4786805600
C      -18.2969807100  -14.1873979100  -13.7007484000
C      -17.7687366900  -14.7066840600  -12.5150842200
C      -18.1889675600  -15.9254045000  -12.0607289800
C      -19.1860645800  -16.6352357400  -12.8330974100
C      -19.7447842100  -16.1691541200  -14.0280150900
H      -19.7834766800  -14.3428277500  -15.3337287400
H      -17.8213375500  -13.2111453500  -13.9156560400
H      -17.0212276900  -14.1216783000  -11.9520701900
H      -17.8552387700  -16.2801713500  -11.1280641100
H      -19.5796612200  -17.6365241500  -12.5759534400
H      -20.5255192300  -16.6762227500  -14.5669498000
36   
Iteration 1 Energy -696.32066741
C      -12.8436694398  -12.9385504270  -13.3334445182
C      -14.2245493406  -12.7322545549  -13.4878983629
C      -14.8339860886  -11.6699687755  -14.1419788126
C      -13.8949753284  -10.7843099619  -14.7170059930
C      -12.5160970777  -10.9170316848  -14.6278009561
C      -11.9939355053  -12.0161170898  -13.9256818966
H      -12.4568396748  -13.8033628334  -12.7942666746
H      -14.8902326382  -13.5046409053  -13.1026829558
H      -15.8881395779  -11.6464074339  -14.4313409339
H      -14.3015468148   -9.8750493472  -15.1634330022
H      -11.8460267177  -10.2521784175  -15.1768137077
H      -10.9159126738  -12.1833353207  -13.8972201999
C      -13.2535789549  -16.8460252719  -14.4265574885
C      -14.5762779666  -16.5485937906  -14.7834068165
C      -14.8035899349  -15.6213769093  -15.7987550809
C      -13.7047474833  -15.1015544365  -16.5140241719
C      -12.4055462546  -15.4899925171  -16.2002158637
C      -12.1581881141  -16.3795742147  -15.1376433741
H      -13.1012565986  -17.5295429624  -13.5904329865
H      -15.4305195411  -16.9674407897  -14.2537400570
H      -15.7757034389  -15.1836794038  -16.0046357983
H      -13.9025646517  -14.3188441546  -17.2441467022
H      -11.5572471028  -15.1052482438  -16.7722778402
H      -11.1179070262  -16.6335085698  -14.9159947525
C      -19.2143907099  -14.8193025569  -14.4609753447
C      -18.2720590247  -14.0892174769  -13.7565172246
C      -17.8285778657  -14.7398416134  -12.5880071005
C      -18.2464820468  -15.9797046796  -12.1055201683
C      -19.2061871435  -16.7411278104  -12.7780859329
C      -19.6097503735  -16.0599115952  -13.9247985551
H      -19.7227269838  -14.3787640105  -15.3236483822
H      -17.8531504717  -13.1219260211  -14.0444505847
H      -17.0824897044  -14.2041748354  -11.9987135313
H      -17.8656488514  -16.3484684998  -11.1551132179
H      -19.5812227527  -17.7309077125  -12.4981066018
H      -20.3805369466  -16.5584243523  -14.5083197500
36   
Iteration 2 Energy -696.33906406
C      -12.8826457909  -12.9666086203  -13.3903034746
C      -14.2674736522  -12.8349145662  -13.5011721737
C      -14.7287777681  -11.7212130907  -14.1912148940
C      -13.9142872279  -10.7714016933  -14.7706822728
C      -12.5363176780  -10.9502883130  -14.6412102000
C      -12.0370117339  -12.0459250081  -13.9670896210
H      -12.4637903241  -13.8169134186  -12.8443382384
H      -14.9272867620  -13.5678736051  -13.0799719194
H      -15.8041043440  -11.6318388628  -14.3518708330
H      -14.3267252397   -9.8964023843  -15.2376201985
H      -11.8384294844  -10.2467685702  -15.1070096946
H      -10.9789172438  -12.1773983789  -13.8987246705
C      -13.2754373695  -16.8671826249  -14.4072850404
C      -14.5579778049  -16.4620318887  -14.7455951253
C      -14.7684900195  -15.5757254802  -15.7631103844
C      -13.7006674062  -15.0466176046  -16.4919051433
C      -12.4084192373  -15.4326537566  -16.1824352414
C      -12.1879146397  -16.3354142317  -15.1402475787
H      -13.1218849916  -17.5891190842  -13.5846094504
H      -15.4192694728  -16.8826672968  -14.1856655331
H      -15.8282552037  -15.2502323843  -15.9670611948
H      -13.8816950378  -14.2946797980  -17.2934875587
H      -11.5918420062  -15.0586167000  -16.7352574576
H      -11.1838199126  -16.6360024962  -14.8785589218
C      -19.2298563372  -14.8532869890  -14.4397738949
C      -18.2724797454  -14.1937788750  -13.6983109596
C      -17.7142991333  -14.6951996524  -12.5008659101
C      -18.2020148982  -15.9497004034  -12.0910755163
C      -19.1536467466  -16.5865172330  -12.8633308053
C      -19.7056812127  -16.0858383421  -14.0400238020
H      -19.6445127703  -14.4002837624  -15.3059611506
H      -17.9368380075  -13.2411104810  -14.0835860428
H      -16.9688218938  -14.1488728395  -11.9312074856
H      -17.8475666738  -16.4204311279  -11.1477210236
H      -19.4790082094  -17.5562934159  -12.5094218853
H      -20.4700948410  -16.6305562008  -14.6159500436
36   
Iteration 3 Energy -696.35374472
C      -12.8807451345  -13.0009596342  -13.4079250432
C      -14.2678974616  -12.8482531548  -13.5248614854
C      -14.7868208203  -11.7448227521  -14.2086608893
C      -13.9178743013  -10.7957670933  -14.7769222126
C      -12.5348026354  -10.9600024194  -14.6522130807
C      -12.0036236967  -12.0666398229  -13.9707029488
H      -12.4821255150  -13.8624101023  -12.8718067172
H      -14.9362250113  -13.5957728514  -13.0918719229
H      -15.8665940107  -11.6278443120  -14.3218038918
H      -14.3238134910   -9.9158368574  -15.2843837267
H      -11.8583929907  -10.2299801225  -15.1008715392
H      -10.9193111573  -12.1948684772  -13.8828973771
C      -13.2796673833  -16.8514863772  -14.3965112563
C      -14.5856938647  -16.4493637649  -14.7097829493
C      -14.8141685841  -15.5362560238  -15.7503772830
C      -13.7239411332  -15.0252794327  -16.4668294765
C      -12.4206645177  -15.4183562232  -16.1538577270
C      -12.1991340533  -16.3326766721  -15.1163484574
H      -13.1089300358  -17.5707662024  -13.5924824655
H      -15.4309672251  -16.8578222231  -14.1499907251
H      -15.8345414499  -15.2147499182  -15.9936603316
H      -13.8986197187  -14.3028102518  -17.2685654269
H      -11.5671488806  -15.0200313352  -16.7229320858
H      -11.1795233812  -16.6378037058  -14.8720977528
C      -19.2105844896  -14.8410184240  -14.4417557717
C      -18.2348693340  -14.1426269218  -13.7148128368
C      -17.7292773908  -14.7083565631  -12.5376325217
C      -18.1897523088  -15.9546619114  -12.1000251744
C      -19.1607867621  -16.6461466736  -12.8433379507
C      -19.6815087076  -16.0951097437  -14.0187461582
H      -19.6255475831  -14.3947347664  -15.3540609983
H      -17.8664176859  -13.1737289231  -14.0574076683
H      -16.9790952031  -14.1702769790  -11.9571302293
H      -17.8017500880  -16.3850562335  -11.1725882720
H      -19.5144314541  -17.6211605291  -12.5010421690
H      -20.4410133597  -16.6269217816  -14.5967588174
36   
Iteration 4 Energy -696.35313867
C      -12.8842550803  -13.0508518260  -13.4150794008
C      -14.2645172436  -12.8741411227  -13.5435145855
C      -14.7834520707  -11.7673838151  -14.2215366897
C      -13.9226299057  -10.8158933901  -14.7830793381
C      -12.5389055644  -10.9675319231  -14.6673329906
C      -12.0452188621  -12.0857114579  -13.9822395401
H      -12.4789690105  -13.9186942703  -12.8948449369
H      -14.9404664893  -13.6189052495  -13.1214476989
H      -15.8632273672  -11.6400855171  -14.3128133300
H      -14.3335914409   -9.9490968296  -15.3064774286
H      -11.8591627413  -10.2324465319  -15.1020193813
H      -10.9631809926  -12.2091699446  -13.8905183934
C      -13.3002876980  -16.8253637169  -14.3774756932
C      -14.6078493325  -16.4302433359  -14.6829272969
C      -14.8079565540  -15.5131983419  -15.7224552070
C      -13.7390731595  -14.9908818285  -16.4564381378
C      -12.4413171159  -15.3965387705  -16.1339383192
C      -12.2212669625  -16.3127601989  -15.1007196710
H      -13.1229381703  -17.5414741984  -13.5751163871
H      -15.4560152283  -16.8240437447  -14.1235011495
H      -15.8223145311  -15.1981883208  -15.9629192147
H      -13.9155055069  -14.2739929668  -17.2575546682
H      -11.5904818392  -14.9951682399  -16.6929524283
H      -11.2026264888  -16.6265494997  -14.8603204133
C      -19.1980804455  -14.8244262061  -14.4847628375
C      -18.2246172440  -14.1701970485  -13.7214026356
C      -17.7086502781  -14.7184057778  -12.5436452672
C      -18.1646808452  -15.9617372210  -12.1009386861
C      -19.1356113598  -16.6464913174  -12.8415261479
C      -19.6353389302  -16.0678116076  -14.0126702890
H      -19.6020402939  -14.3838629539  -15.4019982545
H      -17.8543426984  -13.1997608187  -14.0540738005
H      -16.9579330076  -14.1741224112  -11.9678944100
H      -17.7709236795  -16.3927886499  -11.1811414574
H      -19.5030652665  -17.6190544898  -12.5057311552
H      -20.3957674155  -16.6033856372  -14.5806480991
36   
Iteration 5 Energy -696.35526130
C      -12.8899189671  -13.0445375592  -13.4313332040
C      -14.2719996807  -12.8811236942  -13.5517631089
C      -14.7938831675  -11.7749734725  -14.2255773622
C      -13.9292952918  -10.8304113831  -14.7805360494
C      -12.5460026319  -10.9885138708  -14.6617273436
C      -12.0283878111  -12.0955613446  -13.9850593371
H      -12.4885770620  -13.9155940795  -12.9142327665
H      -14.9417232863  -13.6291304669  -13.1314654731
H      -15.8731047090  -11.6463510640  -14.3164136437
H      -14.3346885374   -9.9647533671  -15.3055370088
H      -11.8715713060  -10.2488395106  -15.0962894509
H      -10.9489931518  -12.2198953951  -13.8930689330
C      -13.3055728598  -16.8145369106  -14.3716663954
C      -14.6074446755  -16.4123299572  -14.6839854590
C      -14.8262116582  -15.4997100836  -15.7167473981
C      -13.7456997175  -14.9898182646  -16.4391829761
C      -12.4443556084  -15.3905122768  -16.1261023649
C      -12.2224877966  -16.3058591983  -15.0943439426
H      -13.1340580121  -17.5309517460  -13.5670558962
H      -15.4541273677  -16.8053569124  -14.1209101443
H      -15.8424543277  -15.1852150507  -15.9533120195
H      -13.9167400392  -14.2719757326  -17.2413530749
H      -11.6017319829  -14.9877478674  -16.6850622096
H      -11.2063004668  -16.6223619077  -14.8524383106
C      -19.1749472099  -14.8359773881  -14.4625301050
C      -18.2036052503  -14.1535003523  -13.7268975457
C      -17.6985730828  -14.7148112117  -12.5513208509
C      -18.1614089512  -15.9589578746  -12.1146073264
C      -19.1306155276  -16.6453521142  -12.8495007028
C      -19.6369759682  -16.0782367099  -14.0214295111
H      -19.5755446132  -14.3986324083  -15.3761256682
H      -17.8407688961  -13.1840934847  -14.0695142680
H      -16.9478226208  -14.1781066072  -11.9699921878
H      -17.7684019000  -16.3928151358  -11.1948160203
H      -19.4935896954  -17.6157340617  -12.5069099057
H      -20.3986769895  -16.6080807162  -14.5948473756
36   
Iteration 6 Energy -696.35563316
C      -12.8988348987  -13.0640251925  -13.4422090356
C      -14.2815332608  -12.9052312892  -13.5595283153
C      -14.7984432999  -11.7930825361  -14.2292823892
C      -13.9374322263  -10.8421023858  -14.7855843427
C      -12.5538390112  -11.0045987347  -14.6661920298
C      -12.0342346171  -12.1143250292  -13.9929957148
H      -12.4965982556  -13.9386475855  -12.9318750703
H      -14.9514307940  -13.6566812528  -13.1449986387
H      -15.8779889163  -11.6669733543  -14.3219215525
H      -14.3433001044   -9.9769093287  -15.3120929759
H      -11.8790358341  -10.2634888386  -15.0980289645
H      -10.9543092366  -12.2409489596  -13.9022400102
C      -13.3244450801  -16.7970550264  -14.3540036174
C      -14.6266043416  -16.3923177161  -14.6635253023
C      -14.8399493480  -15.4799854638  -15.7006949573
C      -13.7588573370  -14.9707951637  -16.4250918093
C      -12.4571819153  -15.3730702087  -16.1154237215
C      -12.2432259069  -16.2880548578  -15.0808043593
H      -13.1511243614  -17.5125214133  -13.5483696518
H      -15.4748550098  -16.7789425963  -14.0971494469
H      -15.8552947687  -15.1602448441  -15.9354481110
H      -13.9292552774  -14.2503279778  -17.2257875897
H      -11.6115323413  -14.9699536697  -16.6748600002
H      -11.2279228452  -16.6063107530  -14.8380802274
C      -19.1492664218  -14.8369244038  -14.4711118782
C      -18.1760365677  -14.1536811936  -13.7358432697
C      -17.6750705034  -14.7186174580  -12.5594502173
C      -18.1379409904  -15.9616079799  -12.1174401366
C      -19.1094781865  -16.6412601975  -12.8580930879
C      -19.6178313668  -16.0789643611  -14.0327356260
H      -19.5476921092  -14.3980520483  -15.3867709115
H      -17.8112119313  -13.1851520893  -14.0790083597
H      -16.9235560042  -14.1833030032  -11.9782670604
H      -17.7455352292  -16.3968669013  -11.1972206005
H      -19.4749572525  -17.6106638049  -12.5156190319
H      -20.3804552695  -16.6086715609  -14.6059073266
36   
Iteration 7 Energy -696.35595198
C      -12.9086924140  -13.0919625122  -13.4549653615
C      -14.2911521856  -12.9318828363  -13.5713910220
C      -14.8113195746  -11.8172776126  -14.2363230298
C      -13.9478954062  -10.8638856566  -14.7898316605
C      -12.5633855301  -11.0269296035  -14.6722753333
C      -12.0431582665  -12.1402072762  -14.0033072316
H      -12.5067570183  -13.9707707493  -12.9515860209
H      -14.9603223899  -13.6868032854  -13.1621959040
H      -15.8912531271  -11.6928623662  -14.3299695640
H      -14.3533756558   -9.9976747759  -15.3157296736
H      -11.8890820121  -10.2833670382  -15.1011309559
H      -10.9627299059  -12.2690991967  -13.9142751978
C      -13.3484800777  -16.7706868147  -14.3311456694
C      -14.6483206049  -16.3582593801  -14.6434419303
C      -14.8703702701  -15.4475190180  -15.6826197246
C      -13.7841388891  -14.9454309925  -16.4052964730
C      -12.4849678132  -15.3551443263  -16.0928326693
C      -12.2634228165  -16.2689403865  -15.0579779271
H      -13.1796759380  -17.4847091818  -13.5228288136
H      -15.4967901128  -16.7385059544  -14.0722469912
H      -15.8852103175  -15.1224554477  -15.9132091385
H      -13.9482930075  -14.2223185157  -17.2055596996
H      -11.6381859817  -14.9514589508  -16.6542165569
H      -11.2480213487  -16.5881341314  -14.8163454198
C      -19.1122825891  -14.8405933235  -14.4838201936
C      -18.1363743521  -14.1621039520  -13.7441238246
C      -17.6312595494  -14.7175459650  -12.5645550337
C      -18.1064863252  -15.9596514131  -12.1317885893
C      -19.0803784794  -16.6394173356  -12.8725722393
C      -19.5898141516  -16.0818924672  -14.0500007214
H      -19.5060716892  -14.3974636462  -15.4013499057
H      -17.7703019621  -13.1953992436  -14.0902010673
H      -16.8788489939  -14.1843180827  -11.9823776519
H      -17.7176838043  -16.3981901499  -11.2111571760
H      -19.4479654848  -17.6073512876  -12.5276958273
H      -20.3537927750  -16.6101463040  -14.6233111419
36   
Iteration 8 Energy -696.35633161
C      -12.9177919704  -13.1155268185  -13.4641888748
C      -14.2997245062  -12.9535628662  -13.5782647804
C      -14.8198952421  -11.8392052314  -14.2425455060
C      -13.9577165955  -10.8860843105  -14.7928581068
C      -12.5734440490  -11.0493491578  -14.6769122017
C      -12.0531018416  -12.1636644720  -14.0118229829
H      -12.5160893586  -13.9971560609  -12.9661187275
H      -14.9683401235  -13.7094913399  -13.1720288912
H      -15.8995465588  -11.7135754697  -14.3350317966
H      -14.3636711200  -10.0193511114  -15.3167500644
H      -11.8997445837  -10.3039919928  -15.1032732781
H      -10.9731043443  -12.2939226984  -13.9252376568
C      -13.3811423337  -16.7435363495  -14.3104497760
C      -14.6803673726  -16.3301226797  -14.6204916050
C      -14.8924325841  -15.4216397137  -15.6618926160
C      -13.8082994760  -14.9229714730  -16.3886177363
C      -12.5097356188  -15.3347504016  -16.0782030596
C      -12.2963062054  -16.2467835620  -15.0410020309
H      -13.2119973971  -17.4546616074  -13.4998776986
H      -15.5308551738  -16.7016969997  -14.0470832120
H      -15.9053675714  -15.0909677953  -15.8898088207
H      -13.9726414892  -14.1986051502  -17.1873180760
H      -11.6626316094  -14.9337815873  -16.6376083386
H      -11.2822958253  -16.5688969463  -14.7979353777
C      -19.0695421907  -14.8410167098  -14.4984070635
C      -18.0934733865  -14.1645111507  -13.7589448634
C      -17.5969595324  -14.7250436119  -12.5786682343
C      -18.0739292630  -15.9651595382  -12.1427280616
C      -19.0473132107  -16.6423394049  -12.8842744768
C      -19.5493943926  -16.0797480296  -14.0621214771
H      -19.4601168834  -14.3989188876  -15.4165132608
H      -17.7229668769  -13.1993434373  -14.1041295677
H      -16.8445566460  -14.1943416549  -11.9945680593
H      -17.6871731577  -16.4029113576  -11.2211404439
H      -19.4202102023  -17.6086060535  -12.5405700039
H      -20.3143821273  -16.6051235488  -14.6362686131
36   
Iteration 9 Energy -696.35659912
C      -12.9276665300  -13.1349854896  -13.4591021426
C      -14.3090347397  -12.9695806278  -13.5693299093
C      -14.8268687297  -11.8581064444  -14.2385319695
C      -13.9673937503  -10.9074087420  -14.7941433248
C      -12.5835230319  -11.0716741159  -14.6817769948
C      -12.0664396438  -12.1863568299  -14.0156643043
H      -12.5262471336  -14.0169608771  -12.9621992567
H      -14.9770105955  -13.7241870937  -13.1618437447
H      -15.9060772447  -11.7326529758  -14.3327633786
H      -14.3754013559  -10.0402241472  -15.3153144483
H      -11.9089896543  -10.3294091216  -15.1116994173
H      -10.9866805827  -12.3203660325  -13.9356898101
C      -13.4341225470  -16.7128145561  -14.2878935585
C      -14.7298290773  -16.2935318307  -14.6036064685
C      -14.9417234100  -15.3906831630  -15.6484450801
C      -13.8540128701  -14.9024124002  -16.3753498479
C      -12.5580977447  -15.3195667265  -16.0618701831
C      -12.3464121911  -16.2272466257  -15.0207729753
H      -13.2704273013  -17.4170911485  -13.4704824898
H      -15.5816728700  -16.6536954962  -14.0258575769
H      -15.9524436319  -15.0504189116  -15.8724501818
H      -14.0138810047  -14.1755696262  -17.1723534407
H      -11.7092903385  -14.9230128787  -16.6198410158
H      -11.3331422177  -16.5492572878  -14.7743705993
C      -19.0018284703  -14.8438770134  -14.5239943344
C      -18.0281788586  -14.1727234951  -13.7790426383
C      -17.5460487073  -14.7399176817  -12.5962436453
C      -18.0227694982  -15.9773969150  -12.1545719610
C      -18.9934003389  -16.6473359376  -12.9043159327
C      -19.4842480784  -16.0796991451  -14.0840064225
H      -19.3871301882  -14.4017360832  -15.4434865013
H      -17.6474185412  -13.2105321416  -14.1208162443
H      -16.7949544612  -14.2114688530  -12.0090751572
H      -17.6418392480  -16.4140796280  -11.2301939181
H      -19.3735502892  -17.6122684543  -12.5652579273
H      -20.2485059445  -16.6021106826  -14.6612985390
36   
Iteration 10 Energy -696.35674648
C      -12.9341725555  -13.1431856225  -13.4398842645
C      -14.3152285676  -12.9718621125  -13.5447382781
C      -14.8393733267  -11.8697858654  -14.2222624398
C      -13.9758010245  -10.9313447593  -14.7904892665
C      -12.5920787065  -11.0979678240  -14.6851967068
C      -12.0716265092  -12.2071484823  -14.0128843844
H      -12.5360949424  -14.0228791245  -12.9371296488
H      -14.9795676093  -13.7232709592  -13.1281934451
H      -15.9182073137  -11.7446052550  -14.3186115822
H      -14.3840426851  -10.0642240426  -15.3112751815
H      -11.9183823100  -10.3628397724  -15.1278001018
H      -10.9918912969  -12.3466153054  -13.9430917592
C      -13.5234600482  -16.6755680301  -14.2659688174
C      -14.8193214726  -16.2578266598  -14.5810904353
C      -15.0054824247  -15.3615398812  -15.6356629620
C      -13.9195986172  -14.8810013013  -16.3704627176
C      -12.6267766863  -15.3025232059  -16.0535718495
C      -12.4331942004  -16.2027559747  -15.0026454508
H      -13.3616893601  -17.3690835116  -13.4393558686
H      -15.6756368695  -16.6017841589  -14.0007650222
H      -16.0118875829  -15.0080344706  -15.8602817812
H      -14.0787248637  -14.1529597559  -17.1664421676
H      -11.7717487756  -14.9162501487  -16.6085926244
H      -11.4226576385  -16.5262933607  -14.7473435635
C      -18.9001283536  -14.8568233697  -14.5524733679
C      -17.9331103641  -14.1890819488  -13.7977347652
C      -17.4651016672  -14.7532424183  -12.6083969191
C      -17.9568049781  -15.9894881930  -12.1827150554
C      -18.9207332146  -16.6632499243  -12.9373730069
C      -19.3940193351  -16.0908773998  -14.1208120829
H      -19.2739105201  -14.4118344040  -15.4749044548
H      -17.5402599832  -13.2317876147  -14.1381885009
H      -16.7177177139  -14.2301383996  -12.0119737006
H      -17.5880422677  -16.4275593376  -11.2544559335
H      -19.3059148366  -17.6275793027  -12.6022140123
H      -20.1538721994  -16.6073472820  -14.7086732218
36   
Iteration 11 Energy -696.35708148
C      -12.9216478694  -13.1213982930  -13.4251052105
C      -14.3031713807  -12.9508532614  -13.5283001181
C      -14.8249401894  -11.8498251304  -14.2098434020
C      -13.9639667238  -10.9150333188  -14.7884941194
C      -12.5804193558  -11.0838827036  -14.6857333542
C      -12.0602334181  -12.1885599557  -14.0053913127
H      -12.5224714151  -13.9957438340  -12.9133393866
H      -14.9676974169  -13.6976790467  -13.1031516854
H      -15.9039156233  -11.7221074229  -14.3015678545
H      -14.3730742058  -10.0512957989  -15.3142945793
H      -11.9064287343  -10.3537499204  -15.1361831129
H      -10.9804522613  -12.3267192389  -13.9349601609
C      -13.5305938436  -16.6885529336  -14.2785475318
C      -14.8237134946  -16.2682328838  -14.6021067560
C      -15.0152034352  -15.3719904829  -15.6558262752
C      -13.9245726931  -14.8934197939  -16.3848806750
C      -12.6330040603  -15.3156877282  -16.0627710124
C      -12.4381183011  -16.2156132383  -15.0115854263
H      -13.3736208289  -17.3830093130  -13.4516575049
H      -15.6806915477  -16.6170242113  -14.0261450480
H      -16.0222647326  -15.0244106069  -15.8866314896
H      -14.0800118174  -14.1702772486  -17.1860967804
H      -11.7772983167  -14.9323939629  -16.6187242716
H      -11.4281345630  -16.5396467995  -14.7549303479
C      -18.9014983490  -14.8603336036  -14.5493706914
C      -17.9423331326  -14.1908879535  -13.7862028297
C      -17.4811514241  -14.7573525797  -12.5950239706
C      -17.9680202510  -15.9962316223  -12.1717573070
C      -18.9246086420  -16.6699120465  -12.9360258699
C      -19.3923055310  -16.0972502854  -14.1217801826
H      -19.2699860678  -14.4161817509  -15.4744919300
H      -17.5481616386  -13.2330905524  -14.1233385214
H      -16.7377334019  -14.2334155384  -11.9945671320
H      -17.6014895625  -16.4355718705  -11.2431403653
H      -19.3076452671  -17.6367614249  -12.6059532157
H      -20.1456813248  -16.6162628233  -14.7157359089
36   
Iteration 12 Energy -696.35743794
C      -12.8961567389  -13.0934454485  -13.3981323961
C      -14.2787232018  -12.9227674593  -13.4925653501
C      -14.8005084093  -11.8262322393  -14.1826752536
C      -13.9405732790  -10.9051218265  -14.7869371516
C      -12.5561318089  -11.0758655599  -14.6975742411
C      -12.0373700338  -12.1704361790  -13.9994521028
H      -12.4937663673  -13.9559347226  -12.8679002445
H      -14.9419761417  -13.6586571878  -13.0452485927
H      -15.8798728193  -11.6904658028  -14.2598789720
H      -14.3518410429  -10.0506176786  -15.3261427106
H      -11.8834254673  -10.3573919022  -15.1687787424
H      -10.9574529496  -12.3079166124  -13.9305087308
C      -13.6112428190  -16.6776042707  -14.2880833557
C      -14.8996647860  -16.2516034869  -14.6247250215
C      -15.0845847373  -15.3583075727  -15.6826412901
C      -13.9797448903  -14.8934115144  -16.3997541929
C      -12.6929908832  -15.3216696262  -16.0640302324
C      -12.5046162273  -16.2171510297  -15.0077969846
H      -13.4685940572  -17.3721341957  -13.4585036829
H      -15.7617192409  -16.6014071921  -14.0575114018
H      -16.0891277366  -15.0176034345  -15.9322659142
H      -14.1219707172  -14.1833478297  -17.2152250326
H      -11.8323693264  -14.9501126638  -16.6213364847
H      -11.4994633472  -16.5494495064  -14.7426650059
C      -18.8332519153  -14.8795188693  -14.5583834129
C      -17.8985692606  -14.2070503797  -13.7671464675
C      -17.4635292326  -14.7772270070  -12.5675985082
C      -17.9495420141  -16.0215469122  -12.1596709605
C      -18.8817279838  -16.6925905607  -12.9568511879
C      -19.3271893976  -16.1229726977  -14.1530692491
H      -19.1785329742  -14.4336535538  -15.4920476037
H      -17.4992472438  -13.2476591875  -14.0928967049
H      -16.7354886387  -14.2530766198  -11.9489218171
H      -17.6005932843  -16.4662184942  -11.2266125427
H      -19.2642345967  -17.6642992707  -12.6414096545
H      -20.0604672504  -16.6458906853  -14.7687141432
36   
Iteration 13 Energy -696.35750124
C      -12.8473892439  -13.0515973062  -13.3578253489
C      -14.2308831330  -12.8763774798  -13.4367653698
C      -14.7543681202  -11.7906103938  -14.1442404190
C      -13.9055898588  -10.8879294480  -14.7923414260
C      -12.5224094664  -11.0764802665  -14.7149985732
C      -11.9899070401  -12.1503075090  -13.9943525228
H      -12.4413112936  -13.8963548801  -12.8014974283
H      -14.8924856671  -13.5927958605  -12.9543427497
H      -15.8341067396  -11.6454576758  -14.1976985283
H      -14.3189937843  -10.0474582942  -15.3525045826
H      -11.8524937562  -10.3778139295  -15.2188458132
H      -10.9089263726  -12.2859379678  -13.9333235234
C      -13.7591413780  -16.6661430889  -14.2862257851
C      -15.0275886508  -16.2180406535  -14.6671505335
C      -15.1944822782  -15.3310489472  -15.7348266940
C      -14.0744564054  -14.8806139892  -16.4369677031
C      -12.8018558273  -15.3234687466  -16.0675556472
C      -12.6453924683  -16.2117784109  -14.9991028861
H      -13.6410457794  -17.3587658012  -13.4506302253
H      -15.9056397266  -16.5593170872  -14.1209879463
H      -16.1931522598  -14.9975158446  -16.0127551113
H      -14.1935291820  -14.1877371497  -17.2709365699
H      -11.9257044645  -14.9734169586  -16.6161345519
H      -11.6477554698  -16.5535804424  -14.7192925512
C      -18.7068166032  -14.9105414332  -14.5691324358
C      -17.8223609816  -14.2329056004  -13.7256615774
C      -17.4348170312  -14.8077998725  -12.5123010936
C      -17.9245589535  -16.0636472919  -12.1451933662
C      -18.8073784084  -16.7463631890  -12.9884178859
C      -19.1980617972  -16.1664661201  -14.1991028043
H      -19.0104005606  -14.4622166803  -15.5168236539
H      -17.4170782783  -13.2685391899  -14.0273692679
H      -16.7384732554  -14.2844678613  -11.8570615982
H      -17.6095074291  -16.5151504438  -11.2035216021
H      -19.1879741808  -17.7276112402  -12.7009206880
H      -19.8902249749  -16.6941021258  -14.8568468759
36   
Iteration 14 Energy -696.35795128
C      -12.8340995851  -13.0420265947  -13.3587868275
C      -14.2177472605  -12.8668570941  -13.4334894046
C      -14.7440227408  -11.7860575711  -14.1457994597
C      -13.8912378819  -10.8879499573  -14.7944951014
C      -12.5068250140  -11.0696053555  -14.7226953681
C      -11.9774831979  -12.1436702518  -14.0007384238
H      -12.4259028762  -13.8862176296  -12.8034224176
H      -14.8793327178  -13.5814851717  -12.9478829961
H      -15.8237702677  -11.6406948406  -14.1996762820
H      -14.3055863701  -10.0491425935  -15.3561615375
H      -11.8385789709  -10.3711714435  -15.2293152635
H      -10.8966563483  -12.2815289689  -13.9414565560
C      -13.7753015070  -16.6621765884  -14.3095896523
C      -15.0483572592  -16.2252467254  -14.6872688515
C      -15.1936920713  -15.3375250672  -15.7567272432
C      -14.0663196214  -14.8877633800  -16.4473257214
C      -12.7936042927  -15.3265946258  -16.0736225369
C      -12.6471769372  -16.2151667817  -15.0047188491
H      -13.6624236262  -17.3546526977  -13.4736006494
H      -15.9295570655  -16.5675886676  -14.1466896076
H      -16.1871555373  -14.9986959386  -16.0454904055
H      -14.1805828298  -14.1914211170  -17.2789092257
H      -11.9144805595  -14.9729805322  -16.6146551120
H      -11.6536230524  -16.5598016863  -14.7133598255
C      -18.7070858200  -14.9137217192  -14.5533177828
C      -17.8388330002  -14.2311744028  -13.6970512888
C      -17.4589043762  -14.8058796147  -12.4815557574
C      -17.9437108137  -16.0669083927  -12.1249805092
C      -18.8105106336  -16.7519820205  -12.9825805046
C      -19.1930867320  -16.1752239997  -14.1972858336
H      -19.0017459928  -14.4640834319  -15.5030426592
H      -17.4390306155  -13.2617421284  -13.9904539359
H      -16.7732334311  -14.2789726881  -11.8175802449
H      -17.6380788413  -16.5200638889  -11.1810790932
H      -19.1871004968  -17.7370663671  -12.7031295940
H      -19.8714224760  -16.7075192450  -14.8657208178
36   
Iteration 15 Energy -696.35819438
C      -12.8209108905  -13.0511003390  -13.3659760650
C      -14.2041348904  -12.8727445269  -13.4369081637
C      -14.7356536173  -11.7971352500  -14.1529241057